LAMMPS data file. msi2lmp v3.9.9 / 05 Nov 2018 / CGCMM for arg/HAP/HAP_PEG_pcff

   8438 atoms
   6132 bonds
   9810 angles
   6000 dihedrals
   6272 impropers

  10 atom types
   7 bond types
   9 angle types
   9 dihedral types
   6 improper types

     0.000000000    75.336000000 xlo xhi
     0.000000000    65.242800000 ylo yhi
     0.000000000    80.000000000 zlo zhi

Masses

   1  15.999400 # oap1
   2  40.080000 # ca+h
   3  30.973800 # pap
   4  15.999400 # oap2
   5   1.008000 # hop
   6   1.007970 # ho
   7  15.999400 # oh
   8  12.011150 # c2
   9   1.007970 # hc
  10  15.999400 # oc

Pair Coeffs # lj/class2/coul/long

   1   0.0550000000   3.5000000000 # oap1
   2   0.2400000000   3.5500000000 # ca+h
   3   0.2500000000   4.5000000000 # pap
   4   0.0800000000   3.8000000000 # oap2
   5   0.0130000000   1.0980000000 # hop
   6   0.0130000000   1.0980000000 # ho
   7   0.2400000000   3.5350000000 # oh
   8   0.0540000000   4.0100000000 # c2
   9   0.0200000000   2.9950000000 # hc
  10   0.2400000000   3.5350000000 # oc

Bond Coeffs # class2

   1     1.5700   430.0000     0.0000     0.0000 # oap1-pap
   2     0.9400   500.0000     0.0000     0.0000 # oap2-hop
   3     0.9650   532.5062 -1282.9050  2004.7658 # ho-oh
   4     1.4200   400.3954  -835.1951  1313.0142 # oh-c2
   5     1.5300   299.6700  -501.7700   679.8100 # c2-c2
   6     1.1010   345.0000  -691.8900   844.6000 # c2-hc
   7     1.4200   400.3954  -835.1951  1313.0142 # c2-oc

Angle Coeffs # class2

   1   109.4700   125.0000     0.0000     0.0000 # oap1-pap-oap1
   2   105.8000    52.7061   -12.1090    -9.8681 # ho-oh-c2
   3   111.2700    54.5381    -8.3642   -13.0838 # oh-c2-c2
   4   108.7280    58.5446   -10.8088   -12.4006 # oh-c2-hc
   5   110.7700    41.4530   -10.6040     5.1290 # c2-c2-hc
   6   107.6600    39.6410   -12.9210    -2.4318 # hc-c2-hc
   7   111.2700    54.5381    -8.3642   -13.0838 # c2-c2-oc
   8   108.7280    58.5446   -10.8088   -12.4006 # hc-c2-oc
   9   104.5000    35.7454   -10.0067    -6.2729 # c2-oc-c2

Dihedral Coeffs # class2

   1    -0.6732     0.0000    -0.4778     0.0000    -0.1670     0.0000# ho-oh-c2-c2
   2     0.1863     0.0000    -0.4338     0.0000    -0.2121     0.0000# ho-oh-c2-hc
   3    -0.1435     0.0000     0.2530     0.0000    -0.0905     0.0000# oh-c2-c2-hc
   4    -0.1820     0.0000    -0.1084     0.0000    -0.7047     0.0000# oh-c2-c2-oc
   5    -0.1432     0.0000     0.0617     0.0000    -0.1083     0.0000# hc-c2-c2-hc
   6    -0.1435     0.0000     0.2530     0.0000    -0.0905     0.0000# hc-c2-c2-oc
   7    -0.5203     0.0000    -0.3028     0.0000    -0.3450     0.0000# c2-c2-oc-c2
   8     0.5302     0.0000     0.0000     0.0000    -0.3966     0.0000# hc-c2-oc-c2
   9    -0.1820     0.0000    -0.1084     0.0000    -0.7047     0.0000# oc-c2-c2-oc

Improper Coeffs # class2

  1     0.0000     0.0000 
  2     0.0000     0.0000 
  3     0.0000     0.0000 
  4     0.0000     0.0000 
  5     0.0000     0.0000 
  6     0.0000     0.0000 

BondBond Coeffs

  1     0.0000     1.5700     1.5700 
  2    -9.6879     0.9650     1.4200 
  3    11.4318     1.4200     1.5300 
  4    23.1979     1.4200     1.1010 
  5     3.3872     1.5300     1.1010 
  6     5.3316     1.1010     1.1010 
  7    11.4318     1.5300     1.4200 
  8    23.1979     1.1010     1.4200 
  9    -7.1131     1.4200     1.4200 

BondAngle Coeffs

  1     0.0000     0.0000     1.5700     1.5700 
  2    18.9277    28.5800     0.9650     1.4200 
  3    20.4033     2.6868     1.4200     1.5300 
  4    55.3270     4.6189     1.4200     1.1010 
  5    20.7540    11.4210     1.5300     1.1010 
  6    18.1030    18.1030     1.1010     1.1010 
  7     2.6868    20.4033     1.5300     1.4200 
  8     4.6189    55.3270     1.1010     1.4200 
  9    -2.8112    -2.8112     1.4200     1.4200 

AngleAngle Coeffs

  1     0.0000     0.0000     0.0000   109.4700   109.4700   109.4700 
  2     2.5926     0.1689     3.9177   111.2700   110.7700   108.7280 
  3     2.4259     2.1283     2.4259   108.7280   107.6600   108.7280 
  4     0.2738    -0.4825     0.2738   110.7700   107.6600   110.7700 
  5     3.9177     2.5926     0.1689   110.7700   108.7280   111.2700 
  6     2.4259     2.4259     2.1283   107.6600   108.7280   108.7280 

AngleAngleTorsion Coeffs

  1   -12.1038   105.8000   111.2700 
  2   -10.5093   105.8000   108.7280 
  3   -20.2006   111.2700   110.7700 
  4   -14.0484   111.2700   111.2700 
  5   -12.5640   110.7700   110.7700 
  6   -20.2006   110.7700   111.2700 
  7   -19.0059   111.2700   104.5000 
  8   -16.4438   108.7280   104.5000 
  9   -14.0484   111.2700   111.2700 

EndBondTorsion Coeffs

1     0.0000     0.5343     0.9025    -0.5800     0.9004     0.0000     0.9650     1.5300 
2     0.2493     0.6803     0.0000    -1.7554     1.3145     0.2263     0.9650     1.1010 
3     0.5903     0.6669     0.8584     0.9681     0.9551     0.0436     1.4200     1.1010 
4     1.0165     0.7553    -0.4609     1.0165     0.7553    -0.4609     1.4200     1.4200 
5     0.2130     0.3120     0.0777     0.2130     0.3120     0.0777     1.1010     1.1010 
6     0.9681     0.9551     0.0436     0.5903     0.6669     0.8584     1.1010     1.4200 
7    -0.2456     1.0517    -0.7795     0.4741     1.2635     0.5576     1.5300     1.4200 
8    -0.6054     1.3339     0.9648    -0.1620     0.1564    -1.1408     1.1010     1.4200 
9     1.0165     0.7553    -0.4609     1.0165     0.7553    -0.4609     1.4200     1.4200 

MiddleBondTorsion Coeffs

  1     1.2472     0.0000     0.7485     1.4200 
  2     0.0000     0.9241    -0.5889     1.4200 
  3   -16.7975    -1.2296    -0.2750     1.5300 
  4   -17.2585    -3.6157    -0.8364     1.5300 
  5   -14.2610    -0.5322    -0.4864     1.5300 
  6   -16.7975    -1.2296    -0.2750     1.5300 
  7    -5.9288    -2.7007    -0.3175     1.4200 
  8    -6.8007    -4.6546    -1.4101     1.4200 
  9   -17.2585    -3.6157    -0.8364     1.5300 

BondBond13 Coeffs

  1     0.0000     0.9650     1.5300 
  2     0.0000     0.9650     1.1010 
  3     0.0000     1.4200     1.1010 
  4     0.0000     1.4200     1.4200 
  5     0.0000     1.1010     1.1010 
  6     0.0000     1.1010     1.4200 
  7     0.0000     1.5300     1.4200 
  8     0.0000     1.1010     1.4200 
  9     0.0000     1.4200     1.4200 

AngleTorsion Coeffs

  1     0.8726    -0.3577     0.3888    -3.5903     2.5225     0.4888   105.8000   111.2700 
  2     0.0000    -0.2810    -0.5944    -3.4060     1.6396     0.0737   105.8000   108.7280 
  3    -0.1892     0.4918     0.7273     2.3668     2.4920    -1.0122   111.2700   110.7700 
  4     0.5511     0.9737    -0.6673     0.5511     0.9737    -0.6673   111.2700   111.2700 
  5    -0.8085     0.5569    -0.2466    -0.8085     0.5569    -0.2466   110.7700   110.7700 
  6     2.3668     2.4920    -1.0122    -0.1892     0.4918     0.7273   110.7700   111.2700 
  7    -2.7466     1.4877    -0.8955     0.5676     0.9450     0.0703   111.2700   104.5000 
  8    -1.8234     1.6393     0.5144    -0.7777     0.4340    -0.6653   108.7280   104.5000 
  9     0.5511     0.9737    -0.6673     0.5511     0.9737    -0.6673   111.2700   111.2700 

Atoms # full

      1      1   1 -0.800000     0.663924836     2.685338103     0.211873479   0   0   0 # oap1
      2      1   1 -0.800000     2.038293714     7.402300199     0.225760386   0   0   0 # oap1
      3      1   1 -0.800000     6.685179345     6.227382901     0.219264012   0   0   0 # oap1
      4      1   1 -0.800000     4.011439409     5.472571461     3.661974114   0   0   0 # oap1
      5      1   1 -0.800000     2.658471674     0.730463455     3.663622236   0   0   0 # oap1
      6      1   1 -0.800000     7.432073875     1.933580558     3.651538646   0   0   0 # oap1
      7      1   1 -0.800000     4.007169826     5.472714805     6.661769882   0   0   0 # oap1
      8      1   1 -0.800000     2.659573146     0.735636940     6.656370124   0   0   0 # oap1
      9      1   1 -0.800000     7.431970520     1.921925120     6.653582905   0   0   0 # oap1
     10      1   1 -0.800000     0.671231749     2.693091296     3.224463235   0   0   0 # oap1
     11      1   1 -0.800000     2.037858334     7.410125090     3.212849433   0   0   0 # oap1
     12      1   1 -0.800000     6.685893364     6.217822833     3.217790103   0   0   0 # oap1
     13      1   2  1.500000     4.708500000     2.718453742     0.009900000   0   0   0 # ca+h
     14      1   2  1.500000     0.000000000     5.436907485     3.447400000   0   0   0 # ca+h
     15      1   2  1.500000     0.000000000     5.436907485     6.865100000   0   0   0 # ca+h
     16      1   2  1.500000     4.708500000     2.718453742     3.427600000   0   0   0 # ca+h
     17      1   2  1.500000     8.315587680     2.014863545     1.718750000   0   0   0 # ca+h
     18      1   3  1.000000     1.573204951     3.230894402     1.714854979   0   0   0 # pap
     19      1   1 -0.800000     1.672459941     5.061422551     1.722616831   0   0   0 # oap1
     20      1   1 -0.800000     3.273285729     2.530417636     1.709308546   0   0   0 # oap1
     21      1   2  1.500000     3.514283145     6.194078406     1.718750000   0   0   0 # ca+h
     22      1   3  1.000000     1.088266084     7.908103948     1.717762023   0   0   0 # pap
     23      1   1 -0.800000    74.807380259     7.030511859     1.718095711  -1   0   0 # oap1
     24      1   1 -0.800000     0.823856937     9.725120239     1.717804322   0   0   0 # oap1
     25      1   2  1.500000     7.004129175     8.101780504     1.718750000   0   0   0 # ca+h
     26      1   3  1.000000     6.707835201     5.157795308     1.715478852   0   0   0 # pap
     27      1   1 -0.800000     8.263310132     4.185959067     1.713935057   0   0   0 # oap1
     28      1   1 -0.800000     5.280111596     4.003889947     1.724060671   0   0   0 # oap1
     29      1   2  1.500000     5.809912320     6.140497683     5.156250000   0   0   0 # ca+h
     30      1   3  1.000000     3.095996359     4.925689184     5.160238781   0   0   0 # pap
     31      1   1 -0.800000     3.037268977     3.092283409     5.160424780   0   0   0 # oap1
     32      1   1 -0.800000     1.384201779     5.595575100     5.151174151   0   0   0 # oap1
     33      1   2  1.500000     1.194216855     1.961282822     5.156250000   0   0   0 # ca+h
     34      1   3  1.000000     3.593832634     0.214749263     5.160629034   0   0   0 # pap
     35      1   1 -0.800000     5.206978228     1.087168881     5.154073272   0   0   0 # oap1
     36      1   1 -0.800000     3.872448286    63.640389234     5.157579154   0  -1   0 # oap1
     37      1   2  1.500000     7.121370825     0.053580723     5.156250000   0   0   0 # ca+h
     38      1   3  1.000000     7.410792980     2.991067455     5.156334049   0   0   0 # pap
     39      1   1 -0.800000     5.866284082     3.980754847     5.156698464   0   0   0 # oap1
     40      1   1 -0.800000     8.859203397     4.115552684     5.161991799   0   0   0 # oap1
     41      1   4 -1.100000     0.001184458     0.003957224     5.511420458   0   0   0 # oap2
     42      1   5  0.200000     0.025236599     0.022344958     6.621160480   0   0   0 # hop
     43      1   1 -0.800000    10.095473381     2.690194853     0.210267479   0   0   0 # oap1
     44      1   1 -0.800000    11.465077210     7.398917010     0.214857312   0   0   0 # oap1
     45      1   1 -0.800000    16.110438048     6.230393332     0.218212443   0   0   0 # oap1
     46      1   1 -0.800000    13.445324415     5.475211389     3.649313305   0   0   0 # oap1
     47      1   1 -0.800000    12.081841314     0.739935926     3.665409055   0   0   0 # oap1
     48      1   1 -0.800000    16.843287736     1.931391764     3.651128940   0   0   0 # oap1
     49      1   1 -0.800000    13.448208078     5.475187025     6.649932767   0   0   0 # oap1
     50      1   1 -0.800000    12.074134956     0.731161031     6.655088869   0   0   0 # oap1
     51      1   1 -0.800000    16.849019705     1.924830970     6.656248561   0   0   0 # oap1
     52      1   1 -0.800000    10.108542926     2.679106173     3.208802850   0   0   0 # oap1
     53      1   1 -0.800000    11.466698305     7.406966109     3.219247639   0   0   0 # oap1
     54      1   1 -0.800000    16.095710350     6.221925129     3.217182179   0   0   0 # oap1
     55      1   2  1.500000    14.125500000     2.718453742     0.009900000   0   0   0 # ca+h
     56      1   2  1.500000     9.417000000     5.436907485     3.447400000   0   0   0 # ca+h
     57      1   2  1.500000     9.417000000     5.436907485     6.865100000   0   0   0 # ca+h
     58      1   2  1.500000    14.125500000     2.718453742     3.427600000   0   0   0 # ca+h
     59      1   2  1.500000    17.732587680     2.014863545     1.718750000   0   0   0 # ca+h
     60      1   3  1.000000    11.020743940     3.223933638     1.708135316   0   0   0 # pap
     61      1   1 -0.800000    11.092289643     5.055978643     1.726251059   0   0   0 # oap1
     62      1   1 -0.800000    12.720404268     2.525789151     1.711592442   0   0   0 # oap1
     63      1   2  1.500000    12.931283145     6.194078406     1.718750000   0   0   0 # ca+h
     64      1   3  1.000000    10.537781290     7.917224449     1.716243670   0   0   0 # pap
     65      1   1 -0.800000     8.909738474     7.073580699     1.721333624   0   0   0 # oap1
     66      1   1 -0.800000    10.289736024     9.734245916     1.719740279   0   0   0 # oap1
     67      1   2  1.500000    16.421129175     8.101780504     1.718750000   0   0   0 # ca+h
     68      1   3  1.000000    16.125451423     5.161318176     1.715075136   0   0   0 # pap
     69      1   1 -0.800000    17.676752071     4.183886637     1.720804826   0   0   0 # oap1
     70      1   1 -0.800000    14.692137055     4.014963538     1.720821119   0   0   0 # oap1
     71      1   2  1.500000    15.226912320     6.140497683     5.156250000   0   0   0 # ca+h
     72      1   3  1.000000    12.539154679     4.922312445     5.150423735   0   0   0 # pap
     73      1   1 -0.800000    12.454161846     3.089970929     5.156014449   0   0   0 # oap1
     74      1   1 -0.800000    10.840717474     5.613276239     5.152496947   0   0   0 # oap1
     75      1   2  1.500000    10.611216855     1.961282822     5.156250000   0   0   0 # ca+h
     76      1   3  1.000000    13.013645976     0.214757927     5.160874886   0   0   0 # pap
     77      1   1 -0.800000    14.630997181     1.079422229     5.161222426   0   0   0 # oap1
     78      1   1 -0.800000    13.288807195    63.639923765     5.152234783   0  -1   0 # oap1
     79      1   2  1.500000    16.538370825     0.053580723     5.156250000   0   0   0 # ca+h
     80      1   3  1.000000    16.830788759     2.989298216     5.155856301   0   0   0 # pap
     81      1   1 -0.800000    15.286102237     3.976311579     5.162965877   0   0   0 # oap1
     82      1   1 -0.800000    18.279356301     4.114768270     5.153927326   0   0   0 # oap1
     83      1   4 -1.100000     9.414484963     0.002580818     5.507057186   0   0   0 # oap2
     84      1   5  0.200000     9.435193576     0.039018632     6.616415746   0   0   0 # hop
     85      1   1 -0.800000    19.510549993     2.680860997     0.214665816   0   0   0 # oap1
     86      1   1 -0.800000    20.883111106     7.400772888     0.222652932   0   0   0 # oap1
     87      1   1 -0.800000    25.517404383     6.228791155     0.223310967   0   0   0 # oap1
     88      1   1 -0.800000    22.852588292     5.468341241     3.653983002   0   0   0 # oap1
     89      1   1 -0.800000    21.503788384     0.737235164     3.654163946   0   0   0 # oap1
     90      1   1 -0.800000    26.261311878     1.931219409     3.651990881   0   0   0 # oap1
     91      1   1 -0.800000    22.854397017     5.475439008     6.659786747   0   0   0 # oap1
     92      1   1 -0.800000    21.491716358     0.738680768     6.644532803   0   0   0 # oap1
     93      1   1 -0.800000    26.260322740     1.927277561     6.655501553   0   0   0 # oap1
     94      1   1 -0.800000    19.519798368     2.686252376     3.214843921   0   0   0 # oap1
     95      1   1 -0.800000    20.882219825     7.409268554     3.223749363   0   0   0 # oap1
     96      1   1 -0.800000    25.510450496     6.219840930     3.217778129   0   0   0 # oap1
     97      1   2  1.500000    23.542500000     2.718453742     0.009900000   0   0   0 # ca+h
     98      1   2  1.500000    18.834000000     5.436907485     3.447400000   0   0   0 # ca+h
     99      1   2  1.500000    18.834000000     5.436907485     6.865100000   0   0   0 # ca+h
    100      1   2  1.500000    23.542500000     2.718453742     3.427600000   0   0   0 # ca+h
    101      1   2  1.500000    27.149587680     2.014863545     1.718750000   0   0   0 # ca+h
    102      1   3  1.000000    20.432590562     3.222944775     1.711800611   0   0   0 # pap
    103      1   1 -0.800000    20.513675133     5.054958172     1.713846925   0   0   0 # oap1
    104      1   1 -0.800000    22.130215048     2.521135438     1.716366889   0   0   0 # oap1
    105      1   2  1.500000    22.348283145     6.194078406     1.718750000   0   0   0 # ca+h
    106      1   3  1.000000    19.950380268     7.916379165     1.721702640   0   0   0 # pap
    107      1   1 -0.800000    18.321753786     7.073119552     1.729198931   0   0   0 # oap1
    108      1   1 -0.800000    19.705004359     9.733524890     1.716633476   0   0   0 # oap1
    109      1   2  1.500000    25.838129175     8.101780504     1.718750000   0   0   0 # ca+h
    110      1   3  1.000000    25.539620970     5.156773863     1.717680343   0   0   0 # pap
    111      1   1 -0.800000    27.094950056     4.185403462     1.721873720   0   0   0 # oap1
    112      1   1 -0.800000    24.107513441     4.008100485     1.717005935   0   0   0 # oap1
    113      1   2  1.500000    24.643912320     6.140497683     5.156250000   0   0   0 # ca+h
    114      1   3  1.000000    21.950960929     4.917984584     5.158426585   0   0   0 # pap
    115      1   1 -0.800000    21.870909101     3.085892058     5.156505909   0   0   0 # oap1
    116      1   1 -0.800000    20.254655239     5.615093049     5.150188830   0   0   0 # oap1
    117      1   2  1.500000    20.028216855     1.961282822     5.156250000   0   0   0 # ca+h
    118      1   3  1.000000    22.432991543     0.217926139     5.153574370   0   0   0 # pap
    119      1   1 -0.800000    24.050291504     1.083045488     5.156023156   0   0   0 # oap1
    120      1   1 -0.800000    22.706402259    63.642752927     5.158656968   0  -1   0 # oap1
    121      1   2  1.500000    25.955370825     0.053580723     5.156250000   0   0   0 # ca+h
    122      1   3  1.000000    26.247099182     2.991371120     5.154933979   0   0   0 # pap
    123      1   1 -0.800000    24.701414721     3.977188480     5.151098648   0   0   0 # oap1
    124      1   1 -0.800000    27.699041995     4.112410378     5.156187444   0   0   0 # oap1
    125      1   4 -1.100000    18.830773145     0.008067809     5.513537204   0   0   0 # oap2
    126      1   5  0.200000    18.845196345     0.039821670     6.623175697   0   0   0 # hop
    127      1   1 -0.800000    28.934075230     2.682835217     0.213651979   0   0   0 # oap1
    128      1   1 -0.800000    30.295580140     7.402988586     0.217617692   0   0   0 # oap1
    129      1   1 -0.800000    34.946358643     6.225234159     0.219967326   0   0   0 # oap1
    130      1   1 -0.800000    32.275870021     5.471666790     3.653815735   0   0   0 # oap1
    131      1   1 -0.800000    30.910812640     0.731027546     3.662040521   0   0   0 # oap1
    132      1   1 -0.800000    35.679309818     1.927743513     3.660914559   0   0   0 # oap1
    133      1   1 -0.800000    32.269691101     5.474952242     6.655416624   0   0   0 # oap1
    134      1   1 -0.800000    30.914579400     0.736903341     6.652695390   0   0   0 # oap1
    135      1   1 -0.800000    35.686013459     1.927376504     6.661368155   0   0   0 # oap1
    136      1   1 -0.800000    28.941103738     2.685652504     3.211890470   0   0   0 # oap1
    137      1   1 -0.800000    30.295467310     7.405280229     3.217264357   0   0   0 # oap1
    138      1   1 -0.800000    34.936861979     6.213100387     3.218959584   0   0   0 # oap1
    139      1   2  1.500000    32.959500000     2.718453742     0.009900000   0   0   0 # ca+h
    140      1   2  1.500000    28.251000000     5.436907485     3.447400000   0   0   0 # ca+h
    141      1   2  1.500000    28.251000000     5.436907485     6.865100000   0   0   0 # ca+h
    142      1   2  1.500000    32.959500000     2.718453742     3.427600000   0   0   0 # ca+h
    143      1   2  1.500000    36.566587680     2.014863545     1.718750000   0   0   0 # ca+h
    144      1   3  1.000000    29.854070726     3.227864225     1.710524815   0   0   0 # pap
    145      1   1 -0.800000    29.932858586     5.060028053     1.715777507   0   0   0 # oap1
    146      1   1 -0.800000    31.550941496     2.524059236     1.711424994   0   0   0 # oap1
    147      1   2  1.500000    31.765283145     6.194078406     1.718750000   0   0   0 # ca+h
    148      1   3  1.000000    29.364761556     7.919497901     1.716912283   0   0   0 # pap
    149      1   1 -0.800000    27.734997878     7.077174039     1.728294819   0   0   0 # oap1
    150      1   1 -0.800000    29.129957789     9.738331698     1.713308393   0   0   0 # oap1
    151      1   2  1.500000    35.255129175     8.101780504     1.718750000   0   0   0 # ca+h
    152      1   3  1.000000    34.960015664     5.154398979     1.715859573   0   0   0 # pap
    153      1   1 -0.800000    36.513034083     4.179822680     1.719994047   0   0   0 # oap1
    154      1   1 -0.800000    33.530132923     4.003257129     1.716451517   0   0   0 # oap1
    155      1   2  1.500000    34.060912320     6.140497683     5.156250000   0   0   0 # ca+h
    156      1   3  1.000000    31.364841220     4.922094862     5.153213520   0   0   0 # pap
    157      1   1 -0.800000    31.283721242     3.089769427     5.153912948   0   0   0 # oap1
    158      1   1 -0.800000    29.668340979     5.618791008     5.149819987   0   0   0 # oap1
    159      1   2  1.500000    29.445216855     1.961282822     5.156250000   0   0   0 # ca+h
    160      1   3  1.000000    31.847483807     0.214007293     5.156567468   0   0   0 # pap
    161      1   1 -0.800000    33.463653164     1.081787068     5.153652716   0   0   0 # oap1
    162      1   1 -0.800000    32.115801709    63.637894842     5.155426043   0  -1   0 # oap1
    163      1   2  1.500000    35.372370825     0.053580723     5.156250000   0   0   0 # ca+h
    164      1   3  1.000000    35.664145338     2.991541167     5.160942288   0   0   0 # pap
    165      1   1 -0.800000    34.118837187     3.978132101     5.158602499   0   0   0 # oap1
    166      1   1 -0.800000    37.109834435     4.121010261     5.153016883   0   0   0 # oap1
    167      1   4 -1.100000    28.247189932     0.010490131     5.519053211   0   0   0 # oap2
    168      1   5  0.200000    28.270438485     0.033255371     6.628486937   0   0   0 # hop
    169      1   1 -0.800000    38.348369036     2.693374842     0.223656723   0   0   0 # oap1
    170      1   1 -0.800000    39.716946942     7.398229144     0.216053081   0   0   0 # oap1
    171      1   1 -0.800000    44.360916625     6.222442700     0.216437081   0   0   0 # oap1
    172      1   1 -0.800000    41.689735570     5.474162445     3.659095047   0   0   0 # oap1
    173      1   1 -0.800000    40.328113597     0.737615941     3.662152913   0   0   0 # oap1
    174      1   1 -0.800000    45.090764858     1.930726360     3.653271293   0   0   0 # oap1
    175      1   1 -0.800000    41.697237686     5.479841780     6.657088329   0   0   0 # oap1
    176      1   1 -0.800000    40.327716790     0.735162012     6.653049236   0   0   0 # oap1
    177      1   1 -0.800000    45.093752187     1.934905071     6.658591670   0   0   0 # oap1
    178      1   1 -0.800000    38.362551639     2.686155740     3.218588345   0   0   0 # oap1
    179      1   1 -0.800000    39.714996145     7.415166030     3.217723681   0   0   0 # oap1
    180      1   1 -0.800000    44.343775815     6.220195767     3.214778423   0   0   0 # oap1
    181      1   2  1.500000    42.376500000     2.718453742     0.009900000   0   0   0 # ca+h
    182      1   2  1.500000    37.668000000     5.436907485     3.447400000   0   0   0 # ca+h
    183      1   2  1.500000    37.668000000     5.436907485     6.865100000   0   0   0 # ca+h
    184      1   2  1.500000    42.376500000     2.718453742     3.427600000   0   0   0 # ca+h
    185      1   2  1.500000    45.983587680     2.014863545     1.718750000   0   0   0 # ca+h
    186      1   3  1.000000    39.275758757     3.231185584     1.718112157   0   0   0 # pap
    187      1   1 -0.800000    39.350408959     5.063777171     1.726003730   0   0   0 # oap1
    188      1   1 -0.800000    40.972980322     2.528770272     1.716156154   0   0   0 # oap1
    189      1   2  1.500000    41.182283145     6.194078406     1.718750000   0   0   0 # ca+h
    190      1   3  1.000000    38.784259988     7.917736877     1.713538435   0   0   0 # pap
    191      1   1 -0.800000    37.156540687     7.073228316     1.723874957   0   0   0 # oap1
    192      1   1 -0.800000    38.537213008     9.735253849     1.715033780   0   0   0 # oap1
    193      1   2  1.500000    44.672129175     8.101780504     1.718750000   0   0   0 # ca+h
    194      1   3  1.000000    44.377155625     5.156001718     1.715606051   0   0   0 # pap
    195      1   1 -0.800000    45.931313788     4.182982048     1.730363197   0   0   0 # oap1
    196      1   1 -0.800000    42.946171018     4.007623221     1.711819477   0   0   0 # oap1
    197      1   2  1.500000    43.477912320     6.140497683     5.156250000   0   0   0 # ca+h
    198      1   3  1.000000    40.784903815     4.921972488     5.161176244   0   0   0 # pap
    199      1   1 -0.800000    40.702009558     3.089376810     5.160209560   0   0   0 # oap1
    200      1   1 -0.800000    39.088297372     5.616441770     5.156195550   0   0   0 # oap1
    201      1   2  1.500000    38.862216855     1.961282822     5.156250000   0   0   0 # ca+h
    202      1   3  1.000000    41.263941506     0.218246231     5.156807364   0   0   0 # pap
    203      1   1 -0.800000    42.880330832     1.085635904     5.151450594   0   0   0 # oap1
    204      1   1 -0.800000    41.533744480    63.643003638     5.149449443   0  -1   0 # oap1
    205      1   2  1.500000    44.789370825     0.053580723     5.156250000   0   0   0 # ca+h
    206      1   3  1.000000    45.078249910     2.994222150     5.154701955   0   0   0 # pap
    207      1   1 -0.800000    43.535737896     3.985504732     5.148903884   0   0   0 # oap1
    208      1   1 -0.800000    46.530852414     4.113307313     5.159463448   0   0   0 # oap1
    209      1   4 -1.100000    37.672734895     0.012717076     5.517085190   0   0   0 # oap2
    210      1   5  0.200000    37.677107610     0.042954374     6.626761790   0   0   0 # hop
    211      1   1 -0.800000    47.762439873     2.679693303     0.220429326   0   0   0 # oap1
    212      1   1 -0.800000    49.135105211     7.399861641     0.212085563   0   0   0 # oap1
    213      1   1 -0.800000    53.778160727     6.220164784     0.219534554   0   0   0 # oap1
    214      1   1 -0.800000    51.110131197     5.473448058     3.653139118   0   0   0 # oap1
    215      1   1 -0.800000    49.746651502     0.742984993     3.669389343   0   0   0 # oap1
    216      1   1 -0.800000    54.522502112     1.924355758     3.659509708   0   0   0 # oap1
    217      1   1 -0.800000    51.104332761     5.468835103     6.657142797   0   0   0 # oap1
    218      1   1 -0.800000    49.751473027     0.741707910     6.660527568   0   0   0 # oap1
    219      1   1 -0.800000    54.511365313     1.926492545     6.663487276   0   0   0 # oap1
    220      1   1 -0.800000    47.772913627     2.679696984     3.216130106   0   0   0 # oap1
    221      1   1 -0.800000    49.127359998     7.407581054     3.218669758   0   0   0 # oap1
    222      1   1 -0.800000    53.765424327     6.213881610     3.217599352   0   0   0 # oap1
    223      1   2  1.500000    51.793500000     2.718453742     0.009900000   0   0   0 # ca+h
    224      1   2  1.500000    47.085000000     5.436907485     3.447400000   0   0   0 # ca+h
    225      1   2  1.500000    47.085000000     5.436907485     6.865100000   0   0   0 # ca+h
    226      1   2  1.500000    51.793500000     2.718453742     3.427600000   0   0   0 # ca+h
    227      1   2  1.500000    55.400587680     2.014863545     1.718750000   0   0   0 # ca+h
    228      1   3  1.000000    48.686392072     3.222472427     1.715410670   0   0   0 # pap
    229      1   1 -0.800000    48.762806039     5.054655398     1.725916928   0   0   0 # oap1
    230      1   1 -0.800000    50.382586612     2.516299617     1.713602883   0   0   0 # oap1
    231      1   2  1.500000    50.599283145     6.194078406     1.718750000   0   0   0 # ca+h
    232      1   3  1.000000    48.203130620     7.915029285     1.712538230   0   0   0 # pap
    233      1   1 -0.800000    46.575168885     7.070984902     1.719456591   0   0   0 # oap1
    234      1   1 -0.800000    47.957200866     9.732310504     1.713155744   0   0   0 # oap1
    235      1   2  1.500000    54.089129175     8.101780504     1.718750000   0   0   0 # ca+h
    236      1   3  1.000000    53.794391904     5.151744273     1.717357709   0   0   0 # pap
    237      1   1 -0.800000    55.347857174     4.177906119     1.726569559   0   0   0 # oap1