LAMMPS data file. msi2lmp v3.9.10 / 10 Mar 2023 / CGCMM for arg/polyurea/polyurea_1b_1c_01

    250 atoms
    253 bonds
    465 angles
    623 dihedrals
    268 impropers

  11 atom types
  17 bond types
  30 angle types
  39 dihedral types
  20 improper types

     0.000000000    13.692900000 xlo xhi
     0.000000000    13.692900000 ylo yhi
     0.000000000    13.692900000 zlo zhi

Masses

   1   1.007970 # hc
   2  12.011150 # c3
   3  15.999400 # oc
   4  12.011150 # c2
   5  12.011150 # c_1
   6  15.999400 # o_1
   7  15.999400 # o_2
   8  12.011150 # cp
   9  14.010000 # n_2
  10   1.008000 # hn2
  11  12.011000 # c_2

Pair Coeffs # lj/class2/coul/long

   1   0.0200000000   2.9950000000 # hc
   2   0.0540000000   4.0100000000 # c3
   3   0.2400000000   3.5350000000 # oc
   4   0.0540000000   4.0100000000 # c2
   5   0.1200000000   3.8100000000 # c_1
   6   0.2670000000   3.3000000000 # o_1
   7   0.2400000000   3.4200000000 # o_2
   8   0.0640000000   4.0100000000 # cp
   9   0.1060000000   3.6000000000 # n_2
  10   0.0130000000   1.6500000000 # hn2
  11   0.1200000000   3.8100000000 # c_2

Bond Coeffs # class2

   1     1.1010   345.0000  -691.8900   844.6000 # hc-c3
   2     1.4200   400.3954  -835.1951  1313.0142 # c3-oc
   3     1.4200   400.3954  -835.1951  1313.0142 # oc-c2
   4     1.5300   299.6700  -501.7700   679.8100 # c2-c2
   5     1.1010   345.0000  -691.8900   844.6000 # hc-c2
   6     1.2020   851.1403 -1918.4882  2160.7659 # c_1-o_1
   7     1.3683   367.1481  -794.7908  1055.2319 # c_1-o_2
   8     1.4890   339.3574  -655.7236   670.2362 # c_1-cp
   9     1.4300   326.7273  -608.5306   689.0333 # c2-o_2
  10     1.4170   470.8361  -627.6179  1327.6345 # cp-cp
  11     1.0982   372.8251  -803.4526   894.3173 # hc-cp
  12     1.4390   344.0452  -652.1208  1022.2242 # cp-n_2
  13     1.3580   440.6783  -828.3798  1423.2418 # n_2-c_2
  14     0.9959   495.8294 -1092.7239  1441.1290 # n_2-hn2
  15     1.2063   854.2903 -1922.3407  2101.6824 # o_1-c_2
  16     1.5010   321.9021  -521.8208   572.1628 # c2-cp
  17     1.5300   299.6700  -501.7700   679.8100 # c3-c2

Angle Coeffs # class2

   1   108.7280    58.5446   -10.8088   -12.4006 # hc-c3-oc
   2   107.6600    39.6410   -12.9210    -2.4318 # hc-c3-hc
   3   104.5000    35.7454   -10.0067    -6.2729 # c3-oc-c2
   4   110.7700    41.4530   -10.6040     5.1290 # hc-c2-c2
   5   111.2700    54.5381    -8.3642   -13.0838 # oc-c2-c2
   6   107.6600    39.6410   -12.9210    -2.4318 # hc-c2-hc
   7   108.7280    58.5446   -10.8088   -12.4006 # hc-c2-oc
   8   112.6700    39.5160    -7.4430    -9.5583 # c2-c2-c2
   9   104.5000    35.7454   -10.0067    -6.2729 # c2-oc-c2
  10   120.7970    95.3446   -32.2869     6.3778 # o_1-c_1-o_2
  11   125.5320    72.3167   -16.0650     2.0818 # o_1-c_1-cp
  12   108.4400    84.8377   -19.9640     2.7405 # o_2-c_1-cp
  13   113.2880    61.2868   -28.9786     7.9929 # c2-o_2-c_1
  14   107.4100    63.3907   -13.4513     1.6650 # c2-c2-o_2
  15   107.6880    65.4801   -10.3498     5.8866 # hc-c2-o_2
  16   118.9000    61.0226   -34.9931     0.0000 # cp-cp-cp
  17   117.9400    35.1558   -12.4682     0.0000 # hc-cp-cp
  18   120.7640    73.2738   -27.4033    13.3920 # cp-cp-n_2
  19   116.0640    71.2598   -15.8273     2.0506 # c_1-cp-cp
  20   122.9480    40.4820   -16.2028     8.3280 # hn2-n_2-c_2
  21   120.0700    47.1131   -32.5592    13.1257 # cp-n_2-c_2
  22   116.3230    18.3123    -7.8325     5.3290 # cp-n_2-hn2
  23   125.5320   101.8765   -41.8094     7.7236 # o_1-c_2-n_2
  24   114.5292   104.0857   -36.7315    24.2616 # n_2-c_2-n_2
  25   120.0500    44.7148   -22.7352     0.0000 # c2-cp-cp
  26   111.0000    44.3234    -9.4454     0.0000 # hc-c2-cp
  27   111.0000    44.3234    -9.4454     0.0000 # cp-c2-cp
  28   110.7700    41.4530   -10.6040     5.1290 # hc-c2-c3
  29   112.6700    39.5160    -7.4430    -9.5583 # c3-c2-c2
  30   110.7700    41.4530   -10.6040     5.1290 # hc-c3-c2

Dihedral Coeffs # class2

   1     0.5302     0.0000     0.0000     0.0000    -0.3966     0.0000 # hc-c3-oc-c2
   2    -0.5203     0.0000    -0.3028     0.0000    -0.3450     0.0000 # c3-oc-c2-c2
   3     0.5302     0.0000     0.0000     0.0000    -0.3966     0.0000 # c3-oc-c2-hc
   4    -0.1432     0.0000     0.0617     0.0000    -0.1083     0.0000 # hc-c2-c2-hc
   5     0.0000     0.0000     0.0316     0.0000    -0.1681     0.0000 # hc-c2-c2-c2
   6    -0.1435     0.0000     0.2530     0.0000    -0.0905     0.0000 # hc-c2-c2-oc
   7     0.7137     0.0000     0.2660     0.0000    -0.2545     0.0000 # oc-c2-c2-c2
   8     0.0000     0.0000     0.0514     0.0000    -0.1430     0.0000 # c2-c2-c2-c2
   9    -0.5203     0.0000    -0.3028     0.0000    -0.3450     0.0000 # c2-oc-c2-c2
  10     0.5302     0.0000     0.0000     0.0000    -0.3966     0.0000 # c2-oc-c2-hc
  11    -2.5594     0.0000     2.2013     0.0000     0.0325     0.0000 # o_1-c_1-o_2-c2
  12    -2.5594     0.0000     2.2013     0.0000     0.0325     0.0000 # cp-c_1-o_2-c2
  13     0.0000     0.0000     0.9063     0.0000     0.0000     0.0000 # o_1-c_1-cp-cp
  14     0.0000     0.0000     0.9063     0.0000     0.0000     0.0000 # o_2-c_1-cp-cp
  15     0.0000     0.0000     0.0000     0.0000    -0.1932     0.0000 # c2-c2-o_2-c_1
  16     0.0000     0.0000     0.0000     0.0000    -0.1932     0.0000 # hc-c2-o_2-c_1
  17     0.0000     0.0000     0.0000     0.0000    -0.2500     0.0000 # hc-c2-c2-o_2
  18     0.0000     0.0000     0.0000     0.0000    -0.2500     0.0000 # c2-c2-c2-o_2
  19     8.3667     0.0000     1.1932     0.0000     0.0000     0.0000 # cp-cp-cp-cp
  20     0.0000     0.0000     3.9661     0.0000     0.0000     0.0000 # hc-cp-cp-cp
  21     0.0000     0.0000     1.8769     0.0000     0.0000     0.0000 # hc-cp-cp-hc
  22     0.0000     0.0000     4.6282     0.0000     0.0000     0.0000 # c_1-cp-cp-cp
  23     0.0000     0.0000     2.1670     0.0000     0.0000     0.0000 # hc-cp-cp-c_1
  24     0.0000     0.0000     3.4040     0.0000     0.0000     0.0000 # cp-cp-cp-n_2
  25     0.0000     0.0000     3.4040     0.0000     0.0000     0.0000 # hc-cp-cp-n_2
  26     0.0000     0.0000     0.8107     0.0000     0.0000     0.0000 # cp-cp-n_2-c_2
  27     0.0000     0.0000     0.6107     0.0000     0.0000     0.0000 # cp-cp-n_2-hn2
  28     0.0000     0.0000     2.0521     0.0000     0.0000     0.0000 # hn2-n_2-c_2-o_1
  29    -1.0632     0.0000     1.5632     0.0000     0.0000     0.0000 # hn2-n_2-c_2-n_2
  30     0.0000     0.0000     2.0521     0.0000     0.0000     0.0000 # cp-n_2-c_2-o_1
  31    -1.0632     0.0000     1.5632     0.0000     0.0000     0.0000 # cp-n_2-c_2-n_2
  32     0.0000     0.0000     4.4072     0.0000     0.0000     0.0000 # c2-cp-cp-cp
  33     0.0000     0.0000     1.5590     0.0000     0.0000     0.0000 # hc-cp-cp-c2
  34    -0.2801     0.0000    -0.0678     0.0000    -0.0122     0.0000 # hc-c2-cp-cp
  35    -0.2802     0.0000    -0.0678     0.0000    -0.0122     0.0000 # cp-c2-cp-cp
  36     0.0000     0.0000     0.0316     0.0000    -0.1681     0.0000 # hc-c2-c2-c3
  37     0.0000     0.0000     0.0514     0.0000    -0.1430     0.0000 # c3-c2-c2-c2
  38    -0.1432     0.0000     0.0617     0.0000    -0.1083     0.0000 # hc-c3-c2-hc
  39     0.0000     0.0000     0.0316     0.0000    -0.1681     0.0000 # hc-c3-c2-c2

Improper Coeffs # class2

  1    49.3740     0.0000 # o_1-c_1-o_2-cp
  2     4.8912     0.0000 # hc-cp-cp-cp
  3    17.0526     0.0000 # cp-cp-cp-n_2
  4    17.0526     0.0000 # c_1-cp-cp-cp
  5     4.4181     0.0000 # cp-n_2-hn2-c_2
  6    59.3740     0.0000 # o_1-c_2-n_2-n_2
  7     7.8153     0.0000 # c2-cp-cp-cp
  8     0.0000     0.0000 
  9     0.0000     0.0000 
 10     0.0000     0.0000 
 11     0.0000     0.0000 
 12     0.0000     0.0000 
 13     0.0000     0.0000 
 14     0.0000     0.0000 
 15     0.0000     0.0000 
 16     0.0000     0.0000 
 17     0.0000     0.0000 
 18     0.0000     0.0000 
 19     0.0000     0.0000 
 20     0.0000     0.0000 

BondBond Coeffs

  1    23.1979     1.1010     1.4200 
  2     5.3316     1.1010     1.1010 
  3    -7.1131     1.4200     1.4200 
  4     3.3872     1.1010     1.5300 
  5    11.4318     1.4200     1.5300 
  6     5.3316     1.1010     1.1010 
  7    23.1979     1.1010     1.4200 
  8     0.0000     1.5300     1.5300 
  9    -7.1131     1.4200     1.4200 
 10   121.4880     1.2020     1.3683 
 11   116.9445     1.2020     1.4890 
 12    69.9445     1.3683     1.4890 
 13    45.4503     1.4300     1.3683 
 14    23.2647     1.5300     1.4300 
 15     5.6454     1.1010     1.4300 
 16    68.2856     1.4170     1.4170 
 17     1.0795     1.0982     1.4170 
 18    37.8749     1.4170     1.4390 
 19    37.8749     1.4890     1.4170 
 20     8.6253     0.9959     1.3580 
 21    41.4233     1.4390     1.3580 
 22     8.2930     1.4390     0.9959 
 23   115.4645     1.2063     1.3580 
 24    84.5263     1.3580     1.3580 
 25    12.0676     1.5010     1.4170 
 26     2.9168     1.1010     1.5010 
 27     0.0000     1.5010     1.5010 
 28     3.3872     1.1010     1.5300 
 29     0.0000     1.5300     1.5300 
 30     3.3872     1.1010     1.5300 

BondAngle Coeffs

  1     4.6189    55.3270     1.1010     1.4200 
  2    18.1030    18.1030     1.1010     1.1010 
  3    -2.8112    -2.8112     1.4200     1.4200 
  4    11.4210    20.7540     1.1010     1.5300 
  5    20.4033     2.6868     1.4200     1.5300 
  6    18.1030    18.1030     1.1010     1.1010 
  7     4.6189    55.3270     1.1010     1.4200 
  8     8.0160     8.0160     1.5300     1.5300 
  9    -2.8112    -2.8112     1.4200     1.4200 
 10    76.2614    71.8761     1.2020     1.3683 
 11    76.1093    72.8758     1.2020     1.4890 
 12    76.1093    72.8758     1.3683     1.4890 
 13    41.9116    46.4608     1.4300     1.3683 
 14    23.3920    47.9487     1.5300     1.4300 
 15     8.6864    57.4975     1.1010     1.4300 
 16    28.8708    28.8708     1.4170     1.4170 
 17    24.2183    20.0033     1.0982     1.4170 
 18    35.8865    53.6977     1.4170     1.4390 
 19    23.6977    45.8865     1.4890     1.4170 
 20    15.0778    34.8312     0.9959     1.3580 
 21    24.3705    34.7791     1.4390     1.3580 
 22    10.4568    12.8217     1.4390     0.9959 
 23    46.1093    32.8758     1.2063     1.3580 
 24    49.0875    49.0875     1.3580     1.3580 
 25    47.0579    31.0771     1.5010     1.4170 
 26    11.7717    26.4608     1.1010     1.5010 
 27     0.0000     0.0000     1.5010     1.5010 
 28    11.4210    20.7540     1.1010     1.5300 
 29     8.0160     8.0160     1.5300     1.5300 
 30    11.4210    20.7540     1.1010     1.5300 

AngleAngle Coeffs

  1     0.0000     0.0000     0.0000   120.7970   108.4400   125.5320 
  2     0.0000     0.0000     0.0000   117.9400   118.9000   117.9400 
  3     0.0000     0.0000     0.0000   118.9000   120.7640   120.7640 
  4     0.0000     5.9863     0.0000   116.0640   118.9000   116.0640 
  5     0.0000     0.0000     0.0000   116.3230   122.9480   120.0700 
  6     0.0000     0.0000     0.0000   125.5320   114.5292   125.5320 
  7     0.0000     0.0000     0.0000   120.0500   118.9000   120.0500 
  8     2.4259     2.4259     2.1283   107.6600   108.7280   108.7280 
  9    -0.3157    -0.3157    -0.3157   107.6600   107.6600   107.6600 
 10     0.2738     0.2738    -0.4825   107.6600   110.7700   110.7700 
 11     0.1689     3.9177     2.5926   108.7280   111.2700   110.7700 
 12     2.4259     2.4259     2.1283   107.6600   108.7280   108.7280 
 13    -1.3199     0.1184    -1.3199   110.7700   112.6700   110.7700 
 14     0.0000     0.0000     0.0000   110.7700   107.4100   107.6880 
 15     0.0000     0.0000     0.0000   107.6600   107.6880   107.6880 
 16     2.3794     2.3794     3.0118   107.6600   111.0000   111.0000 
 17     0.0000     0.0000     0.0000   111.0000   111.0000   111.0000 
 18     0.2738     0.2738    -0.4825   107.6600   110.7700   110.7700 
 19    -1.3199     0.1184    -1.3199   110.7700   112.6700   110.7700 
 20     0.2738     0.2738    -0.4825   107.6600   110.7700   110.7700 

AngleAngleTorsion Coeffs

  1   -16.4438   108.7280   104.5000 
  2   -19.0059   104.5000   111.2700 
  3   -16.4438   104.5000   108.7280 
  4   -12.5640   110.7700   110.7700 
  5   -16.1640   110.7700   112.6700 
  6   -20.2006   110.7700   111.2700 
  7   -29.0420   111.2700   112.6700 
  8   -22.0450   112.6700   112.6700 
  9   -19.0059   104.5000   111.2700 
 10   -16.4438   104.5000   108.7280 
 11     0.0000   120.7970   113.2880 
 12     0.0000   108.4400   113.2880 
 13     0.0000   125.5320   116.0640 
 14     0.0000   108.4400   116.0640 
 15     0.0000   107.4100   113.2880 
 16     0.0000   107.6880   113.2880 
 17     0.0000   110.7700   107.4100 
 18     0.0000   112.6700   107.4100 
 19     0.0000   118.9000   118.9000 
 20    -4.8141   117.9400   118.9000 
 21     0.3598   117.9400   117.9400 
 22     0.0000   116.0640   118.9000 
 23     0.0000   117.9400   116.0640 
 24     0.0000   118.9000   120.7640 
 25     0.0000   117.9400   120.7640 
 26     0.0000   120.7640   120.0700 
 27     0.0000   120.7640   116.3230 
 28     0.0000   122.9480   125.5320 
 29     0.0000   122.9480   114.5292 
 30     0.0000   120.0700   125.5320 
 31     0.0000   120.0700   114.5292 
 32   -14.4097   120.0500   118.9000 
 33     4.4444   117.9400   120.0500 
 34    -5.8888   111.0000   120.0500 
 35     0.0000   111.0000   120.0500 
 36   -16.1640   110.7700   112.6700 
 37   -22.0450   112.6700   112.6700 
 38   -12.5640   110.7700   110.7700 
 39   -16.1640   110.7700   112.6700 

EndBondTorsion Coeffs

1    -0.6054     1.3339     0.9648    -0.1620     0.1564    -1.1408     1.1010     1.4200 
2     0.4741     1.2635     0.5576    -0.2456     1.0517    -0.7795     1.4200     1.5300 
3    -0.1620     0.1564    -1.1408    -0.6054     1.3339     0.9648     1.4200     1.1010 
4     0.2130     0.3120     0.0777     0.2130     0.3120     0.0777     1.1010     1.1010 
5     0.0814     0.0591     0.2219     0.2486     0.2422    -0.0925     1.1010     1.5300 
6     0.9681     0.9551     0.0436     0.5903     0.6669     0.8584     1.1010     1.4200 
7     1.1538     0.8409    -0.9138    -0.3190     0.4411    -0.7174     1.4200     1.5300 
8    -0.0732     0.0000     0.0000    -0.0732     0.0000     0.0000     1.5300     1.5300 
9     0.4741     1.2635     0.5576    -0.2456     1.0517    -0.7795     1.4200     1.5300 
10    -0.1620     0.1564    -1.1408    -0.6054     1.3339     0.9648     1.4200     1.1010 
11     0.0000     0.0000     0.0000     0.0000     0.0000     0.0000     1.2020     1.4300 
12     0.0000     0.0000     0.0000     0.0000     0.0000     0.0000     1.4890     1.4300 
13     0.0000     0.0000     0.0000     0.0000     0.0000     0.0000     1.2020     1.4170 
14     0.0000     0.0000     0.0000     0.0000     0.0000     0.0000     1.3683     1.4170 
15     0.0000     0.0000     0.0000     0.0000     0.0000     0.0000     1.5300     1.3683 
16     0.0000     0.0000     0.0000     0.0000     0.0000     0.0000     1.1010     1.3683 
17     0.0000     0.0000     0.0000     0.0000     0.0000     0.0000     1.1010     1.4300 
18     0.0000     0.0000     0.0000     0.0000     0.0000     0.0000     1.5300     1.4300 
19    -0.1185     6.3204     0.0000    -0.1185     6.3204     0.0000     1.4170     1.4170 
20     0.0000    -0.4669     0.0000     0.0000    -6.8958     0.0000     1.0982     1.4170 
21     0.0000    -0.6890     0.0000     0.0000    -0.6890     0.0000     1.0982     1.0982 
22     0.0000     0.0000     0.0000     0.0000     0.0000     0.0000     1.4890     1.4170 
23     0.0000     0.0000     0.0000     0.0000     0.0000     0.0000     1.0982     1.4890 
24     0.0000     0.0000     0.0000     0.0000     0.0000     0.0000     1.4170     1.4390 
25     0.0000     0.0000     0.0000     0.0000     0.0000     0.0000     1.0982     1.4390 
26     0.0000     0.0000     0.0000     0.0000     0.0000     0.0000     1.4170     1.3580 
27     0.0000     0.0000     0.0000     0.0000     0.0000     0.0000     1.4170     0.9959 
28     0.0000     0.0000     0.0000     0.0000     0.0000     0.0000     0.9959     1.2063 
29     0.0000     0.0000     0.0000     0.0000     0.0000     0.0000     0.9959     1.3580 
30     0.0000     0.0000     0.0000     0.0000     0.0000     0.0000     1.4390     1.2063 
31     0.0000     0.0000     0.0000     0.0000     0.0000     0.0000     1.4390     1.3580 
32     0.0000     0.2421     0.0000     0.0000    -0.6918     0.0000     1.5010     1.4170 
33     0.0000    -0.4879     0.0000     0.0000    -1.7970     0.0000     1.0982     1.5010 
34     1.3997     0.7756     0.0000    -0.5835     1.1220     0.3978     1.1010     1.4170 
35     0.0000     0.0000     0.0000     0.0000     0.0000     0.0000     1.5010     1.4170 
36     0.0814     0.0591     0.2219     0.2486     0.2422    -0.0925     1.1010     1.5300 
37    -0.0732     0.0000     0.0000    -0.0732     0.0000     0.0000     1.5300     1.5300 
38     0.2130     0.3120     0.0777     0.2130     0.3120     0.0777     1.1010     1.1010 
39     0.0814     0.0591     0.2219     0.2486     0.2422    -0.0925     1.1010     1.5300 

MiddleBondTorsion Coeffs

  1    -6.8007    -4.6546    -1.4101     1.4200 
  2    -5.9288    -2.7007    -0.3175     1.4200 
  3    -6.8007    -4.6546    -1.4101     1.4200 
  4   -14.2610    -0.5322    -0.4864     1.5300 
  5   -14.8790    -3.6581    -0.3138     1.5300 
  6   -16.7975    -1.2296    -0.2750     1.5300 
  7   -21.8842    -7.6764    -0.6868     1.5300 
  8   -17.7870    -7.1877     0.0000     1.5300 
  9    -5.9288    -2.7007    -0.3175     1.4200 
 10    -6.8007    -4.6546    -1.4101     1.4200 
 11     4.2600     0.0000     0.0000     1.3683 
 12     0.0000     0.0000     0.0000     1.3683 
 13     0.0000     2.4002     0.0000     1.4890 
 14     0.0000     2.4002     0.0000     1.4890 
 15    -5.4350     0.0000     0.0000     1.4300 
 16     0.0000     0.0000     0.0000     1.4300 
 17     0.0000     0.0000     0.0000     1.5300 
 18     0.0000     0.0000     0.0000     1.5300 
 19    27.5989    -2.3120     0.0000     1.4170 
 20     0.0000    -1.1521     0.0000     1.4170 
 21     0.0000     4.8228     0.0000     1.4170 
 22     0.0000     3.8762     0.0000     1.4170 
 23     0.0000     0.0000     0.0000     1.4170 
 24     0.0000     5.2012     0.0000     1.4170 
 25     0.0000     5.2012     0.0000     1.4170 
 26     0.0000     4.9027     0.0000     1.4390 
 27     0.0000     2.4730     0.0000     1.4390 
 28     0.0000     4.4700     0.0000     1.3580 
 29     0.0000     0.0000     0.0000     1.3580 
 30     0.0000     4.4700     0.0000     1.3580 
 31     0.0000     6.3286     0.0000     1.3580 
 32     0.0000     9.1792     0.0000     1.4170 
 33     0.0000     3.9421     0.0000     1.4170 
 34    -5.5679     1.4083     0.3010     1.5010 
 35     0.0000     0.0000     0.0000     1.5010 
 36   -14.8790    -3.6581    -0.3138     1.5300 
 37   -17.7870    -7.1877     0.0000     1.5300 
 38   -14.2610    -0.5322    -0.4864     1.5300 
 39   -14.8790    -3.6581    -0.3138     1.5300 

BondBond13 Coeffs

  1     0.0000     1.1010     1.4200 
  2     0.0000     1.4200     1.5300 
  3     0.0000     1.4200     1.1010 
  4     0.0000     1.1010     1.1010 
  5     0.0000     1.1010     1.5300 
  6     0.0000     1.1010     1.4200 
  7     0.0000     1.4200     1.5300 
  8     0.0000     1.5300     1.5300 
  9     0.0000     1.4200     1.5300 
 10     0.0000     1.4200     1.1010 
 11     0.0000     1.2020     1.4300 
 12     0.0000     1.4890     1.4300 
 13     0.0000     1.2020     1.4170 
 14     0.0000     1.3683     1.4170 
 15     0.0000     1.5300     1.3683 
 16     0.0000     1.1010     1.3683 
 17     0.0000     1.1010     1.4300 
 18     0.0000     1.5300     1.4300 
 19    53.0000     1.4170     1.4170 
 20    -6.2741     1.0982     1.4170 
 21    -1.7077     1.0982     1.0982 
 22     0.0000     1.4890     1.4170 
 23     0.0000     1.0982     1.4890 
 24     0.0000     1.4170     1.4390 
 25     0.0000     1.0982     1.4390 
 26     0.0000     1.4170     1.3580 
 27     0.0000     1.4170     0.9959 
 28     0.0000     0.9959     1.2063 
 29     0.0000     0.9959     1.3580 
 30     0.0000     1.4390     1.2063 
 31     0.0000     1.4390     1.3580 
 32     2.5085     1.5010     1.4170 
 33     0.8743     1.0982     1.5010 
 34    -3.4826     1.1010     1.4170 
 35     0.0000     1.5010     1.4170 
 36     0.0000     1.1010     1.5300 
 37     0.0000     1.5300     1.5300 
 38     0.0000     1.1010     1.1010 
 39     0.0000     1.1010     1.5300 

AngleTorsion Coeffs

  1    -1.8234     1.6393     0.5144    -0.7777     0.4340    -0.6653   108.7280   104.5000 
  2     0.5676     0.9450     0.0703    -2.7466     1.4877    -0.8955   104.5000   111.2700 
  3    -0.7777     0.4340    -0.6653    -1.8234     1.6393     0.5144   104.5000   108.7280 
  4    -0.8085     0.5569    -0.2466    -0.8085     0.5569    -0.2466   110.7700   110.7700 
  5     0.3113     0.4516    -0.1988    -0.2454     0.0000    -0.1136   110.7700   112.6700 
  6     2.3668     2.4920    -1.0122    -0.1892     0.4918     0.7273   110.7700   111.2700 
  7     0.9672    -0.7566    -1.2331     0.5623    -0.3041    -0.4015   111.2700   112.6700 
  8     0.3886    -0.3139     0.1389     0.3886    -0.3139     0.1389   112.6700   112.6700 
  9     0.5676     0.9450     0.0703    -2.7466     1.4877    -0.8955   104.5000   111.2700 
 10    -0.7777     0.4340    -0.6653    -1.8234     1.6393     0.5144   104.5000   108.7280 
 11     0.0000     0.0000     0.0000     0.0000     0.0000     0.0000   120.7970   113.2880 
 12     0.0000     0.0000     0.0000     0.0000     0.0000     0.0000   108.4400   113.2880 
 13     0.0000     0.0000     0.0000     0.0000     0.0000     0.0000   125.5320   116.0640 
 14     0.0000     0.0000     0.0000     0.0000     0.0000     0.0000   108.4400   116.0640 
 15     0.0000     0.0000     0.0000     0.0000     0.0000     0.0000   107.4100   113.2880 
 16     0.0000     0.0000     0.0000     0.0000     0.0000     0.0000   107.6880   113.2880 
 17     0.0000     0.0000     0.0000     0.0000     0.0000     0.0000   110.7700   107.4100 
 18     0.0000     0.0000     0.0000     0.0000     0.0000     0.0000   112.6700   107.4100 
 19     1.9767     1.0239     0.0000     1.9767     1.0239     0.0000   118.9000   118.9000 
 20     0.0000     2.7147     0.0000     0.0000     2.5014     0.0000   117.9400   118.9000 
 21     0.0000     2.4501     0.0000     0.0000     2.4501     0.0000   117.9400   117.9400 
 22     0.0000     0.0000     0.0000     0.0000     0.0000     0.0000   116.0640   118.9000 
 23     0.0000     0.0000     0.0000     0.0000     0.0000     0.0000   117.9400   116.0640 
 24     0.0000     0.0000     0.0000     0.0000     0.0000     0.0000   118.9000   120.7640 
 25     0.0000     0.0000     0.0000     0.0000     0.0000     0.0000   117.9400   120.7640 
 26     0.0000     0.0000     0.0000     0.0000     0.0000     0.0000   120.7640   120.0700 
 27     0.0000     0.0000     0.0000     0.0000     0.0000     0.0000   120.7640   116.3230 
 28     0.0000     0.0000     0.0000     0.0000     0.0000     0.0000   122.9480   125.5320 
 29     0.0000     0.0000     0.0000     0.0000     0.0000     0.0000   122.9480   114.5292 
 30     0.0000     0.0000     0.0000     0.0000     0.0000     0.0000   120.0700   125.5320 
 31     0.0000     0.0000     0.0000     0.0000     0.0000     0.0000   120.0700   114.5292 
 32     0.0000    -4.4683     0.0000     0.0000     3.8987     0.0000   120.0500   118.9000 
 33     0.0000     3.4601     0.0000     0.0000    -0.1242     0.0000   117.9400   120.0500 
 34     4.6266     0.1632     0.0461     0.2251     0.6548     0.1237   111.0000   120.0500 
 35     0.0000     0.0000     0.0000     0.0000     0.0000     0.0000   111.0000   120.0500 
 36     0.3113     0.4516    -0.1988    -0.2454     0.0000    -0.1136   110.7700   112.6700 
 37     0.3886    -0.3139     0.1389     0.3886    -0.3139     0.1389   112.6700   112.6700 
 38    -0.8085     0.5569    -0.2466    -0.8085     0.5569    -0.2466   110.7700   110.7700 
 39     0.3113     0.4516    -0.1988    -0.2454     0.0000    -0.1136   110.7700   112.6700 

Atoms # full

      1      1   1  0.053000    12.514072433    10.294174650     1.148918873   0   0   0 # hc
      2      1   2 -0.026000    13.100648248    10.701992974     1.984643824   0   0   0 # c3
      3      1   3 -0.266000    12.522291764    10.194113671     3.169142594   0   0   0 # oc
      4      1   1  0.053000    13.055008608    11.803695286     1.939332631   0   0   0 # hc
      5      1   1  0.053000     0.456439570    10.382237450     1.857975423   1   0   0 # hc
      6      1   4  0.027000    13.225300960    10.571045707     4.342290038   0   0   0 # c2
      7      1   4 -0.106000    12.524590865     9.932522616     5.548154180   0   0   0 # c2
      8      1   1  0.053000     0.581256918    10.218675442     4.301767516   1   0   0 # hc
      9      1   1  0.053000    13.262370014    11.670798644     4.452129287   0   0   0 # hc
     10      1   1  0.053000    12.497352028     8.840801801     5.380980454   0   0   0 # hc
     11      1   1  0.053000    13.135079408    10.075286667     6.456922965   0   0   0 # hc
     12      2   4 -0.106000    12.350341947    12.099223458     9.765681838   0   0   0 # c2
     13      2   1  0.053000    13.367871883    11.782712353     9.472386246   0   0   0 # hc
     14      2   4  0.027000    11.382606596    11.636164086     8.671698914   0   0   0 # c2
     15      2   1  0.053000    12.364181221    13.202607937     9.774559056   0   0   0 # hc
     16      2   1  0.053000    10.342836647    11.920729779     8.918520851   0   0   0 # hc
     17      2   1  0.053000    11.406123068    10.532945002     8.608395982   0   0   0 # hc
     18      2   3 -0.266000    11.789931463    12.226589509     7.441686913   0   0   0 # oc
     19      2   4  0.027000    10.964295247    11.883554169     6.329427706   0   0   0 # c2
     20      2   4 -0.106000    11.091906794    10.428834111     5.824602784   0   0   0 # c2
     21      2   1  0.053000     9.900402600    12.100710589     6.542144797   0   0   0 # hc
     22      2   1  0.053000    11.267209343    12.576259285     5.528223052   0   0   0 # hc
     23      2   1  0.053000    10.475804420    10.324773678     4.913433171   0   0   0 # hc
     24      2   1  0.053000    10.631853434     9.753727780     6.568049129   0   0   0 # hc
     25      3   4 -0.106000     9.823316871    13.494491806     0.765762213   0   0   1 # c2
     26      3   1  0.053000    10.807664432    13.548806332     1.263066009   0   0   1 # hc
     27      3   4  0.027000     9.634584910    12.056777565     0.256597381   0   0   1 # c2
     28      3   1  0.053000     9.885053905     0.485231335    13.592836972   0   1   0 # hc
     29      3   1  0.053000     8.678185877    11.949899935    13.407196455   0   0   0 # hc
     30      3   1  0.053000     9.589898744    11.360536618     1.109056851   0   0   1 # hc
     31      3   3 -0.266000    10.738162304    11.601463252    13.164163016   0   0   0 # oc
     32      3   4  0.027000    10.737293516    12.030824760    11.806877243   0   0   0 # c2
     33      3   4 -0.106000    12.065299216    11.586615690    11.182541702   0   0   0 # c2
     34      3   1  0.053000     9.877925748    11.596789454    11.261523437   0   0   0 # hc
     35      3   1  0.053000    10.642774430    13.129744530    11.735065800   0   0   0 # hc
     36      3   1  0.053000    12.109716990    10.482041777    11.195029804   0   0   0 # hc
     37      3   1  0.053000    12.875268263    11.933299818    11.850022950   0   0   0 # hc
     38      4   4 -0.106000     6.028080733    10.696278813     3.838553142   0   0   1 # c2
     39      4   1  0.053000     5.666173238    10.323615744     4.811235642   0   0   1 # hc
     40      4   4  0.027000     7.181772583    11.671534996     4.102148337   0   0   1 # c2
     41      4   1  0.053000     5.183732304    11.254333695     3.397505728   0   0   1 # hc
     42      4   1  0.053000     8.040292908    11.131239720     4.544457866   0   0   1 # hc
     43      4   1  0.053000     6.858866144    12.417372492     4.853429961   0   0   1 # hc
     44      4   3 -0.266000     7.550337233    12.305118913     2.887389600   0   0   1 # oc
     45      4   4  0.027000     8.575390495    13.274772169     3.047372302   0   0   1 # c2
     46      4   4 -0.106000     8.744265872     0.341034782     1.721586512   0   1   1 # c2
     47      4   1  0.053000     8.313434594     0.296882261     3.847247995   0   1   1 # hc
     48      4   1  0.053000     9.522448416    12.796901534     3.361814279   0   0   1 # hc
     49      4   1  0.053000     8.978723113     1.403650677     1.914426326   0   1   1 # hc
     50      4   1  0.053000     7.768793533     0.353971573     1.204515824   0   1   1 # hc
     51      5   4 -0.106000     2.907123443    10.040757616    13.467648639   0   0   0 # c2
     52      5   1  0.053000     2.337745726     9.157877449     0.117938190   0   0   1 # hc
     53      5   4  0.027000     4.406145358     9.724313211    13.531969486   0   0   0 # c2
     54      5   1  0.053000     2.712470278    10.826301886     0.525480591   0   0   1 # hc
     55      5   1  0.053000     4.986760665    10.479209565    12.973315515   0   0   0 # hc
     56      5   1  0.053000     4.626435187     8.748292595    13.060419748   0   0   0 # hc
     57      5   3 -0.266000     4.768083547     9.721709896     1.214240695   0   0   1 # oc
     58      5   4  0.027000     6.165395020     9.623680542     1.452460103   0   0   1 # c2
     59      5   4 -0.106000     6.394378468     9.478790648     2.962358448   0   0   1 # c2
     60      5   1  0.053000     6.581502447     8.735334967     0.945277157   0   0   1 # hc