LAMMPS data file. msi2lmp v3.9.9 / 05 Nov 2018 / CGCMM for arg/quartz_alpha_ortho

   3024 atoms
   4032 bonds
   8064 angles
  12096 dihedrals
   4032 impropers

   2 atom types
   1 bond types
   2 angle types
   1 dihedral types
   1 improper types

     0.136374430    34.506374430 xlo xhi
    -0.236207555    33.781192445 ylo yhi
    -0.300111111    32.111888889 zlo zhi

Masses

   1  15.999400 # oc23
   2  28.086000 # sc4

Pair Coeffs # lj/class2/coul/long

   1   0.0400000000   3.6000000000 # oc23
   2   0.0800000000   4.2000000000 # sc4

Bond Coeffs # class2

   1     1.6800   285.0000     0.0000     0.0000 # oc23-sc4

Angle Coeffs # class2

   1   149.0000   100.0000     0.0000     0.0000 # sc4-oc23-sc4
   2   109.5000   100.0000     0.0000     0.0000 # oc23-sc4-oc23

Dihedral Coeffs # class2

   1     0.0000     0.0000     0.0000     0.0000     0.0000     0.0000# sc4-oc23-sc4-oc23

Improper Coeffs # class2

  1     0.0000     0.0000 

BondBond Coeffs

  1     0.0000     1.6800     1.6800 
  2     0.0000     1.6800     1.6800 

BondAngle Coeffs

  1     0.0000     0.0000     1.6800     1.6800 
  2     0.0000     0.0000     1.6800     1.6800 

AngleAngle Coeffs

  1     0.0000     0.0000     0.0000   109.5000   109.5000   109.5000 

AngleAngleTorsion Coeffs

  1     0.0000   149.0000   109.5000 

EndBondTorsion Coeffs

1     0.0000     0.0000     0.0000     0.0000     0.0000     0.0000     1.6800     1.6800 

MiddleBondTorsion Coeffs

  1     0.0000     0.0000     0.0000     1.6800 

BondBond13 Coeffs

  1     0.0000     1.6800     1.6800 

AngleTorsion Coeffs

  1     0.0000     0.0000     0.0000     0.0000     0.0000     0.0000   149.0000   109.5000 

Atoms # full

      1      1   1  0.000000     4.629561064     1.762907387     0.629330000   0   0   0 # oc23
      2      1   1  0.000000     2.174563113     6.015088570     0.629330000   0   0   0 # oc23
      3      1   1  0.000000     1.068492788     3.127863797     4.230663333   0   0   0 # oc23
      4      1   1  0.000000     3.523490739     7.380044980     4.230663333   0   0   0 # oc23
      5      1   1  0.000000     4.121937951     3.613591183     2.429996667   0   0   0 # oc23
      6      1   1  0.000000     1.666940000     7.865772366     2.429996667   0   0   0 # oc23
      7      1   1  0.000000     1.666940000     0.638590000     4.772670000   0   0   0 # oc23
      8      1   1  0.000000     4.121937951     4.890771183     4.772670000   0   0   0 # oc23
      9      1   1  0.000000     2.174563113     2.489273797     1.171336667   0   0   0 # oc23
     10      1   1  0.000000     4.629561064     6.741454980     1.171336667   0   0   0 # oc23
     11      1   1  0.000000     3.523490739     1.124317387     2.972003333   0   0   0 # oc23
     12      1   1  0.000000     1.068492788     5.376498570     2.972003333   0   0   0 # oc23
     13      1   2  0.000000     1.180315677     2.044366722     0.000000000   0   0   0 # sc4
     14      1   2  0.000000     3.635313628     6.296547905     0.000000000   0   0   0 # sc4
     15      1   2  0.000000     2.549364547     0.000000000     3.601333333   0   0   0 # sc4
     16      1   2  0.000000    34.464366596     4.252181183     3.601333333  -1   0   0 # sc4
     17      1   2  0.000000     3.635313628     2.207814461     1.800666667   0   0   0 # sc4
     18      1   2  0.000000     1.180315677     6.459995644     1.800666667   0   0   0 # sc4
     19      1   1  0.000000     9.539556966     1.762907387     0.629330000   0   0   0 # oc23
     20      1   1  0.000000     7.084559015     6.015088570     0.629330000   0   0   0 # oc23
     21      1   1  0.000000     5.978488690     3.127863797     4.230663333   0   0   0 # oc23
     22      1   1  0.000000     8.433486640     7.380044980     4.230663333   0   0   0 # oc23
     23      1   1  0.000000     9.031933852     3.613591183     2.429996667   0   0   0 # oc23
     24      1   1  0.000000     6.576935901     7.865772366     2.429996667   0   0   0 # oc23
     25      1   1  0.000000     6.576935901     0.638590000     4.772670000   0   0   0 # oc23
     26      1   1  0.000000     9.031933852     4.890771183     4.772670000   0   0   0 # oc23
     27      1   1  0.000000     7.084559015     2.489273797     1.171336667   0   0   0 # oc23
     28      1   1  0.000000     9.539556966     6.741454980     1.171336667   0   0   0 # oc23
     29      1   1  0.000000     8.433486640     1.124317387     2.972003333   0   0   0 # oc23
     30      1   1  0.000000     5.978488690     5.376498570     2.972003333   0   0   0 # oc23
     31      1   2  0.000000     6.090311579     2.044366722     0.000000000   0   0   0 # sc4
     32      1   2  0.000000     8.545309530     6.296547905     0.000000000   0   0   0 # sc4
     33      1   2  0.000000     7.459360448     0.000000000     3.601333333   0   0   0 # sc4
     34      1   2  0.000000     5.004362497     4.252181183     3.601333333   0   0   0 # sc4
     35      1   2  0.000000     8.545309530     2.207814461     1.800666667   0   0   0 # sc4
     36      1   2  0.000000     6.090311579     6.459995644     1.800666667   0   0   0 # sc4
     37      1   1  0.000000    14.449552867     1.762907387     0.629330000   0   0   0 # oc23
     38      1   1  0.000000    11.994554916     6.015088570     0.629330000   0   0   0 # oc23
     39      1   1  0.000000    10.888484591     3.127863797     4.230663333   0   0   0 # oc23
     40      1   1  0.000000    13.343482542     7.380044980     4.230663333   0   0   0 # oc23
     41      1   1  0.000000    13.941929754     3.613591183     2.429996667   0   0   0 # oc23
     42      1   1  0.000000    11.486931803     7.865772366     2.429996667   0   0   0 # oc23
     43      1   1  0.000000    11.486931803     0.638590000     4.772670000   0   0   0 # oc23
     44      1   1  0.000000    13.941929754     4.890771183     4.772670000   0   0   0 # oc23
     45      1   1  0.000000    11.994554916     2.489273797     1.171336667   0   0   0 # oc23
     46      1   1  0.000000    14.449552867     6.741454980     1.171336667   0   0   0 # oc23
     47      1   1  0.000000    13.343482542     1.124317387     2.972003333   0   0   0 # oc23
     48      1   1  0.000000    10.888484591     5.376498570     2.972003333   0   0   0 # oc23
     49      1   2  0.000000    11.000307480     2.044366722     0.000000000   0   0   0 # sc4
     50      1   2  0.000000    13.455305431     6.296547905     0.000000000   0   0   0 # sc4
     51      1   2  0.000000    12.369356350     0.000000000     3.601333333   0   0   0 # sc4
     52      1   2  0.000000     9.914358399     4.252181183     3.601333333   0   0   0 # sc4
     53      1   2  0.000000    13.455305431     2.207814461     1.800666667   0   0   0 # sc4
     54      1   2  0.000000    11.000307480     6.459995644     1.800666667   0   0   0 # sc4
     55      1   1  0.000000    19.359548768     1.762907387     0.629330000   0   0   0 # oc23
     56      1   1  0.000000    16.904550818     6.015088570     0.629330000   0   0   0 # oc23
     57      1   1  0.000000    15.798480493     3.127863797     4.230663333   0   0   0 # oc23
     58      1   1  0.000000    18.253478443     7.380044980     4.230663333   0   0   0 # oc23
     59      1   1  0.000000    18.851925655     3.613591183     2.429996667   0   0   0 # oc23
     60      1   1  0.000000    16.396927704     7.865772366     2.429996667   0   0   0 # oc23
     61      1   1  0.000000    16.396927704     0.638590000     4.772670000   0   0   0 # oc23
     62      1   1  0.000000    18.851925655     4.890771183     4.772670000   0   0   0 # oc23
     63      1   1  0.000000    16.904550818     2.489273797     1.171336667   0   0   0 # oc23
     64      1   1  0.000000    19.359548768     6.741454980     1.171336667   0   0   0 # oc23
     65      1   1  0.000000    18.253478443     1.124317387     2.972003333   0   0   0 # oc23
     66      1   1  0.000000    15.798480493     5.376498570     2.972003333   0   0   0 # oc23
     67      1   2  0.000000    15.910303382     2.044366722     0.000000000   0   0   0 # sc4
     68      1   2  0.000000    18.365301332     6.296547905     0.000000000   0   0   0 # sc4
     69      1   2  0.000000    17.279352251     0.000000000     3.601333333   0   0   0 # sc4
     70      1   2  0.000000    14.824354300     4.252181183     3.601333333   0   0   0 # sc4
     71      1   2  0.000000    18.365301332     2.207814461     1.800666667   0   0   0 # sc4
     72      1   2  0.000000    15.910303382     6.459995644     1.800666667   0   0   0 # sc4
     73      1   1  0.000000    24.269544670     1.762907387     0.629330000   0   0   0 # oc23
     74      1   1  0.000000    21.814546719     6.015088570     0.629330000   0   0   0 # oc23
     75      1   1  0.000000    20.708476394     3.127863797     4.230663333   0   0   0 # oc23
     76      1   1  0.000000    23.163474345     7.380044980     4.230663333   0   0   0 # oc23
     77      1   1  0.000000    23.761921557     3.613591183     2.429996667   0   0   0 # oc23
     78      1   1  0.000000    21.306923606     7.865772366     2.429996667   0   0   0 # oc23
     79      1   1  0.000000    21.306923606     0.638590000     4.772670000   0   0   0 # oc23
     80      1   1  0.000000    23.761921557     4.890771183     4.772670000   0   0   0 # oc23
     81      1   1  0.000000    21.814546719     2.489273797     1.171336667   0   0   0 # oc23
     82      1   1  0.000000    24.269544670     6.741454980     1.171336667   0   0   0 # oc23
     83      1   1  0.000000    23.163474345     1.124317387     2.972003333   0   0   0 # oc23
     84      1   1  0.000000    20.708476394     5.376498570     2.972003333   0   0   0 # oc23
     85      1   2  0.000000    20.820299283     2.044366722     0.000000000   0   0   0 # sc4
     86      1   2  0.000000    23.275297234     6.296547905     0.000000000   0   0   0 # sc4
     87      1   2  0.000000    22.189348153     0.000000000     3.601333333   0   0   0 # sc4
     88      1   2  0.000000    19.734350202     4.252181183     3.601333333   0   0   0 # sc4
     89      1   2  0.000000    23.275297234     2.207814461     1.800666667   0   0   0 # sc4
     90      1   2  0.000000    20.820299283     6.459995644     1.800666667   0   0   0 # sc4
     91      1   1  0.000000    29.179540571     1.762907387     0.629330000   0   0   0 # oc23
     92      1   1  0.000000    26.724542621     6.015088570     0.629330000   0   0   0 # oc23
     93      1   1  0.000000    25.618472295     3.127863797     4.230663333   0   0   0 # oc23
     94      1   1  0.000000    28.073470246     7.380044980     4.230663333   0   0   0 # oc23
     95      1   1  0.000000    28.671917458     3.613591183     2.429996667   0   0   0 # oc23
     96      1   1  0.000000    26.216919507     7.865772366     2.429996667   0   0   0 # oc23
     97      1   1  0.000000    26.216919507     0.638590000     4.772670000   0   0   0 # oc23
     98      1   1  0.000000    28.671917458     4.890771183     4.772670000   0   0   0 # oc23
     99      1   1  0.000000    26.724542621     2.489273797     1.171336667   0   0   0 # oc23
    100      1   1  0.000000    29.179540571     6.741454980     1.171336667   0   0   0 # oc23
    101      1   1  0.000000    28.073470246     1.124317387     2.972003333   0   0   0 # oc23
    102      1   1  0.000000    25.618472295     5.376498570     2.972003333   0   0   0 # oc23
    103      1   2  0.000000    25.730295185     2.044366722     0.000000000   0   0   0 # sc4
    104      1   2  0.000000    28.185293135     6.296547905     0.000000000   0   0   0 # sc4
    105      1   2  0.000000    27.099344054     0.000000000     3.601333333   0   0   0 # sc4
    106      1   2  0.000000    24.644346103     4.252181183     3.601333333   0   0   0 # sc4
    107      1   2  0.000000    28.185293135     2.207814461     1.800666667   0   0   0 # sc4
    108      1   2  0.000000    25.730295185     6.459995644     1.800666667   0   0   0 # sc4
    109      1   1  0.000000    34.089536473     1.762907387     0.629330000   0   0   0 # oc23
    110      1   1  0.000000    31.634538522     6.015088570     0.629330000   0   0   0 # oc23
    111      1   1  0.000000    30.528468197     3.127863797     4.230663333   0   0   0 # oc23
    112      1   1  0.000000    32.983466148     7.380044980     4.230663333   0   0   0 # oc23
    113      1   1  0.000000    33.581913360     3.613591183     2.429996667   0   0   0 # oc23
    114      1   1  0.000000    31.126915409     7.865772366     2.429996667   0   0   0 # oc23
    115      1   1  0.000000    31.126915409     0.638590000     4.772670000   0   0   0 # oc23
    116      1   1  0.000000    33.581913360     4.890771183     4.772670000   0   0   0 # oc23
    117      1   1  0.000000    31.634538522     2.489273797     1.171336667   0   0   0 # oc23
    118      1   1  0.000000    34.089536473     6.741454980     1.171336667   0   0   0 # oc23
    119      1   1  0.000000    32.983466148     1.124317387     2.972003333   0   0   0 # oc23
    120      1   1  0.000000    30.528468197     5.376498570     2.972003333   0   0   0 # oc23
    121      1   2  0.000000    30.640291086     2.044366722     0.000000000   0   0   0 # sc4
    122      1   2  0.000000    33.095289037     6.296547905     0.000000000   0   0   0 # sc4
    123      1   2  0.000000    32.009339956     0.000000000     3.601333333   0   0   0 # sc4
    124      1   2  0.000000    29.554342005     4.252181183     3.601333333   0   0   0 # sc4
    125      1   2  0.000000    33.095289037     2.207814461     1.800666667   0   0   0 # sc4
    126      1   2  0.000000    30.640291086     6.459995644     1.800666667   0   0   0 # sc4
    127      1   1  0.000000     4.629561064    10.267269753     0.629330000   0   0   0 # oc23
    128      1   1  0.000000     2.174563113    14.519450936     0.629330000   0   0   0 # oc23
    129      1   1  0.000000     1.068492788    11.632226163     4.230663333   0   0   0 # oc23
    130      1   1  0.000000     3.523490739    15.884407346     4.230663333   0   0   0 # oc23
    131      1   1  0.000000     4.121937951    12.117953549     2.429996667   0   0   0 # oc23
    132      1   1  0.000000     1.666940000    16.370134733     2.429996667   0   0   0 # oc23
    133      1   1  0.000000     1.666940000     9.142952366     4.772670000   0   0   0 # oc23
    134      1   1  0.000000     4.121937951    13.395133549     4.772670000   0   0   0 # oc23
    135      1   1  0.000000     2.174563113    10.993636163     1.171336667   0   0   0 # oc23
    136      1   1  0.000000     4.629561064    15.245817346     1.171336667   0   0   0 # oc23
    137      1   1  0.000000     3.523490739     9.628679753     2.972003333   0   0   0 # oc23
    138      1   1  0.000000     1.068492788    13.880860936     2.972003333   0   0   0 # oc23
    139      1   2  0.000000     1.180315677    10.548729088     0.000000000   0   0   0 # sc4
    140      1   2  0.000000     3.635313628    14.800910272     0.000000000   0   0   0 # sc4
    141      1   2  0.000000     2.549364547     8.504362366     3.601333333   0   0   0 # sc4
    142      1   2  0.000000    34.464366596    12.756543549     3.601333333  -1   0   0 # sc4
    143      1   2  0.000000     3.635313628    10.712176827     1.800666667   0   0   0 # sc4
    144      1   2  0.000000     1.180315677    14.964358010     1.800666667   0   0   0 # sc4
    145      1   1  0.000000     9.539556966    10.267269753     0.629330000   0   0   0 # oc23
    146      1   1  0.000000     7.084559015    14.519450936     0.629330000   0   0   0 # oc23
    147      1   1  0.000000     5.978488690    11.632226163     4.230663333   0   0   0 # oc23
    148      1   1  0.000000     8.433486640    15.884407346     4.230663333   0   0   0 # oc23
    149      1   1  0.000000     9.031933852    12.117953549     2.429996667   0   0   0 # oc23
    150      1   1  0.000000     6.576935901    16.370134733     2.429996667   0   0   0 # oc23
    151      1   1  0.000000     6.576935901     9.142952366     4.772670000   0   0   0 # oc23
    152      1   1  0.000000     9.031933852    13.395133549     4.772670000   0   0   0 # oc23
    153      1   1  0.000000     7.084559015    10.993636163     1.171336667   0   0   0 # oc23
    154      1   1  0.000000     9.539556966    15.245817346     1.171336667   0   0   0 # oc23
    155      1   1  0.000000     8.433486640     9.628679753     2.972003333   0   0   0 # oc23
    156      1   1  0.000000     5.978488690    13.880860936     2.972003333   0   0   0 # oc23
    157      1   2  0.000000     6.090311579    10.548729088     0.000000000   0   0   0 # sc4
    158      1   2  0.000000     8.545309530    14.800910272     0.000000000   0   0   0 # sc4
    159      1   2  0.000000     7.459360448     8.504362366     3.601333333   0   0   0 # sc4
    160      1   2  0.000000     5.004362497    12.756543549     3.601333333   0   0   0 # sc4
    161      1   2  0.000000     8.545309530    10.712176827     1.800666667   0   0   0 # sc4
    162      1   2  0.000000     6.090311579    14.964358010     1.800666667   0   0   0 # sc4
    163      1   1  0.000000    14.449552867    10.267269753     0.629330000   0   0   0 # oc23
    164      1   1  0.000000    11.994554916    14.519450936     0.629330000   0   0   0 # oc23
    165      1   1  0.000000    10.888484591    11.632226163     4.230663333   0   0   0 # oc23
    166      1   1  0.000000    13.343482542    15.884407346     4.230663333   0   0   0 # oc23
    167      1   1  0.000000    13.941929754    12.117953549     2.429996667   0   0   0 # oc23
    168      1   1  0.000000    11.486931803    16.370134733     2.429996667   0   0   0 # oc23
    169      1   1  0.000000    11.486931803     9.142952366     4.772670000   0   0   0 # oc23
    170      1   1  0.000000    13.941929754    13.395133549     4.772670000   0   0   0 # oc23
    171      1   1  0.000000    11.994554916    10.993636163     1.171336667   0   0   0 # oc23
    172      1   1  0.000000    14.449552867    15.245817346     1.171336667   0   0   0 # oc23
    173      1   1  0.000000    13.343482542     9.628679753     2.972003333   0   0   0 # oc23
    174      1   1  0.000000    10.888484591    13.880860936     2.972003333   0   0   0 # oc23
    175      1   2  0.000000    11.000307480    10.548729088     0.000000000   0   0   0 # sc4
    176      1   2  0.000000    13.455305431    14.800910272     0.000000000   0   0   0 # sc4
    177      1   2  0.000000    12.369356350     8.504362366     3.601333333   0   0   0 # sc4
    178      1   2  0.000000     9.914358399    12.756543549     3.601333333   0   0   0 # sc4
    179      1   2  0.000000    13.455305431    10.712176827     1.800666667   0   0   0 # sc4
    180      1   2  0.000000    11.000307480    14.964358010     1.800666667   0   0   0 # sc4
    181      1   1  0.000000    19.359548768    10.267269753     0.629330000   0   0   0 # oc23
    182      1   1  0.000000    16.904550818    14.519450936     0.629330000   0   0   0 # oc23
    183      1   1  0.000000    15.798480493    11.632226163     4.230663333   0   0   0 # oc23
    184      1   1  0.000000    18.253478443    15.884407346     4.230663333   0   0   0 # oc23
    185      1   1  0.000000    18.851925655    12.117953549     2.429996667   0   0   0 # oc23
    186      1   1  0.000000    16.396927704    16.370134733     2.429996667   0   0   0 # oc23
    187      1   1  0.000000    16.396927704     9.142952366     4.772670000   0   0   0 # oc23
    188      1   1  0.000000    18.851925655    13.395133549     4.772670000   0   0   0 # oc23
    189      1   1  0.000000    16.904550818    10.993636163     1.171336667   0   0   0 # oc23
    190      1   1  0.000000    19.359548768    15.245817346     1.171336667   0   0   0 # oc23
    191      1   1  0.000000    18.253478443     9.628679753     2.972003333   0   0   0 # oc23
    192      1   1  0.000000    15.798480493    13.880860936     2.972003333   0   0   0 # oc23
    193      1   2  0.000000    15.910303382    10.548729088     0.000000000   0   0   0 # sc4
    194      1   2  0.000000    18.365301332    14.800910272     0.000000000   0   0   0 # sc4
    195      1   2  0.000000    17.279352251     8.504362366     3.601333333   0   0   0 # sc4
    196      1   2  0.000000    14.824354300    12.756543549     3.601333333   0   0   0 # sc4
    197      1   2  0.000000    18.365301332    10.712176827     1.800666667   0   0   0 # sc4
    198      1   2  0.000000    15.910303382    14.964358010     1.800666667   0   0   0 # sc4
    199      1   1  0.000000    24.269544670    10.267269753     0.629330000   0   0   0 # oc23
    200      1   1  0.000000    21.814546719    14.519450936     0.629330000   0   0   0 # oc23
    201      1   1  0.000000    20.708476394    11.632226163     4.230663333   0   0   0 # oc23
    202      1   1  0.000000    23.163474345    15.884407346     4.230663333   0   0   0 # oc23
    203      1   1  0.000000    23.761921557    12.117953549     2.429996667   0   0   0 # oc23
    204      1   1  0.000000    21.306923606    16.370134733     2.429996667   0   0   0 # oc23
    205      1   1  0.000000    21.306923606     9.142952366     4.772670000   0   0   0 # oc23
    206      1   1  0.000000    23.761921557    13.395133549     4.772670000   0   0   0 # oc23
    207      1   1  0.000000    21.814546719    10.993636163     1.171336667   0   0   0 # oc23
    208      1   1  0.000000    24.269544670    15.245817346     1.171336667   0   0   0 # oc23
    209      1   1  0.000000    23.163474345     9.628679753     2.972003333   0   0   0 # oc23
    210      1   1  0.000000    20.708476394    13.880860936     2.972003333   0   0   0 # oc23
    211      1   2  0.000000    20.820299283    10.548729088     0.000000000   0   0   0 # sc4
    212      1   2  0.000000    23.275297234    14.800910272     0.000000000   0   0   0 # sc4
    213      1   2  0.000000    22.189348153     8.504362366     3.601333333   0   0   0 # sc4
    214      1   2  0.000000    19.734350202    12.756543549     3.601333333   0   0   0 # sc4
    215      1   2  0.000000    23.275297234    10.712176827     1.800666667   0   0   0 # sc4
    216      1   2  0.000000    20.820299283    14.964358010     1.800666667   0   0   0 # sc4
    217      1   1  0.000000    29.179540571    10.267269753     0.629330000   0   0   0 # oc23
    218      1   1  0.000000    26.724542621    14.519450936     0.629330000   0   0   0 # oc23
    219      1   1  0.000000    25.618472295    11.632226163     4.230663333   0   0   0 # oc23
    220      1   1  0.000000    28.073470246    15.884407346     4.230663333   0   0   0 # oc23
    221      1   1  0.000000    28.671917458    12.117953549     2.429996667   0   0   0 # oc23
    222      1   1  0.000000    26.216919507    16.370134733     2.429996667   0   0   0 # oc23
    223      1   1  0.000000    26.216919507     9.142952366     4.772670000   0   0   0 # oc23
    224      1   1  0.000000    28.671917458    13.395133549     4.772670000   0   0   0 # oc23
    225      1   1  0.000000    26.724542621    10.993636163     1.171336667   0   0   0 # oc23
    226      1   1  0.000000    29.179540571    15.245817346     1.171336667   0   0   0 # oc23
    227      1   1  0.000000    28.073470246     9.628679753     2.972003333   0   0   0 # oc23
    228      1   1  0.000000    25.618472295    13.880860936     2.972003333   0   0   0 # oc23
    229      1   2  0.000000    25.730295185    10.548729088     0.000000000   0   0   0 # sc4
    230      1   2  0.000000    28.185293135    14.800910272     0.000000000   0   0   0 # sc4
    231      1   2  0.000000    27.099344054     8.504362366     3.601333333   0   0   0 # sc4
    232      1   2  0.000000    24.644346103    12.756543549     3.601333333   0   0   0 # sc4
    233      1   2  0.000000    28.185293135    10.712176827     1.800666667   0   0   0 # sc4
    234      1   2  0.000000    25.730295185    14.964358010     1.800666667   0   0   0 # sc4
    235      1   1  0.000000    34.089536473    10.267269753     0.629330000   0   0   0 # oc23
    236      1   1  0.000000    31.634538522    14.519450936     0.629330000   0   0   0 # oc23
    237      1   1  0.000000    30.528468197    11.632226163     4.230663333   0   0   0 # oc23
    238      1   1  0.000000    32.983466148    15.884407346     4.230663333   0   0   0 # oc23
    239      1   1  0.000000    33.581913360    12.117953549     2.429996667   0   0   0 # oc23
    240      1   1  0.000000    31.126915409    16.370134733     2.429996667   0   0   0 # oc23
    241      1   1  0.000000    31.126915409     9.142952366     4.772670000   0   0   0 # oc23
    242      1   1  0.000000    33.581913360    13.395133549     4.772670000   0   0   0 # oc23
    243      1   1  0.000000    31.634538522    10.993636163     1.171336667   0   0   0 # oc23
    244      1   1  0.000000    34.089536473    15.245817346     1.171336667   0   0   0 # oc23
    245      1   1  0.000000    32.983466148     9.628679753     2.972003333   0   0   0 # oc23
    246      1   1  0.000000    30.528468197    13.880860936     2.972003333   0   0   0 # oc23
    247      1   2  0.000000    30.640291086    10.548729088     0.000000000   0   0   0 # sc4
    248      1   2  0.000000    33.095289037    14.800910272     0.000000000   0   0   0 # sc4
    249      1   2  0.000000    32.009339956     8.504362366     3.601333333   0   0   0 # sc4
    250      1   2  0.000000    29.554342005    12.756543549     3.601333333   0   0   0 # sc4
    251      1   2  0.000000    33.095289037    10.712176827     1.800666667   0   0   0 # sc4
    252      1   2  0.000000    30.640291086    14.964358010     1.800666667   0   0   0 # sc4
    253      1   1  0.000000     4.629561064    18.771632119     0.629330000   0   0   0 # oc23
    254      1   1  0.000000     2.174563113    23.023813302     0.629330000   0   0   0 # oc23
    255      1   1  0.000000     1.068492788    20.136588529     4.230663333   0   0   0 # oc23
    256      1   1  0.000000     3.523490739    24.388769712     4.230663333   0   0   0 # oc23
    257      1   1  0.000000     4.121937951    20.622315916     2.429996667   0   0   0 # oc23
    258      1   1  0.000000     1.666940000    24.874497099     2.429996667   0   0   0 # oc23
    259      1   1  0.000000     1.666940000    17.647314733     4.772670000   0   0   0 # oc23
    260      1   1  0.000000     4.121937951    21.899495916     4.772670000   0   0   0 # oc23
    261      1   1  0.000000     2.174563113    19.497998529     1.171336667   0   0   0 # oc23
    262      1   1  0.000000     4.629561064    23.750179712     1.171336667   0   0   0 # oc23
    263      1   1  0.000000     3.523490739    18.133042119     2.972003333   0   0   0 # oc23
    264      1   1  0.000000     1.068492788    22.385223302     2.972003333   0   0   0 # oc23
    265      1   2  0.000000     1.180315677    19.053091455     0.000000000   0   0   0 # sc4
    266      1   2  0.000000     3.635313628    23.305272638     0.000000000   0   0   0 # sc4
    267      1   2  0.000000     2.549364547    17.008724733     3.601333333   0   0   0 # sc4
    268      1   2  0.000000    34.464366596    21.260905916     3.601333333  -1   0   0 # sc4
    269      1   2  0.000000     3.635313628    19.216539194     1.800666667   0   0   0 # sc4
    270      1   2  0.000000     1.180315677    23.468720377     1.800666667   0   0   0 # sc4
    271      1   1  0.000000     9.539556966    18.771632119     0.629330000   0   0   0 # oc23
    272      1   1  0.000000     7.084559015    23.023813302     0.629330000   0   0   0 # oc23
    273      1   1  0.000000     5.978488690    20.136588529     4.230663333   0   0   0 # oc23
    274      1   1  0.000000     8.433486640    24.388769712     4.230663333   0   0   0 # oc23
    275      1   1  0.000000     9.031933852    20.622315916     2.429996667   0   0   0 # oc23
    276      1   1  0.000000     6.576935901    24.874497099     2.429996667   0   0   0 # oc23
    277      1   1  0.000000     6.576935901    17.647314733     4.772670000   0   0   0 # oc23
    278      1   1  0.000000     9.031933852    21.899495916     4.772670000   0   0   0 # oc23
    279      1   1  0.000000     7.084559015    19.497998529     1.171336667   0   0   0 # oc23
    280      1   1  0.000000     9.539556966    23.750179712     1.171336667   0   0   0 # oc23
    281      1   1  0.000000     8.433486640    18.133042119     2.972003333   0   0   0 # oc23
    282      1   1  0.000000     5.978488690    22.385223302     2.972003333   0   0   0 # oc23
    283      1   2  0.000000     6.090311579    19.053091455     0.000000000   0   0   0 # sc4
    284      1   2  0.000000     8.545309530    23.305272638     0.000000000   0   0   0 # sc4
    285      1   2  0.000000     7.459360448    17.008724733     3.601333333   0   0   0 # sc4
    286      1   2  0.000000     5.004362497    21.260905916     3.601333333   0   0   0 # sc4
    287      1   2  0.000000     8.545309530    19.216539194     1.800666667   0   0   0 # sc4
    288      1   2  0.000000     6.090311579    23.468720377     1.800666667   0   0   0 # sc4
    289      1   1  0.000000    14.449552867    18.771632119     0.629330000   0   0   0 # oc23
    290      1   1  0.000000    11.994554916    23.023813302     0.629330000   0   0   0 # oc23
    291      1   1  0.000000    10.888484591    20.136588529     4.230663333   0   0   0 # oc23
    292      1   1  0.000000    13.343482542    24.388769712     4.230663333   0   0   0 # oc23
    293      1   1  0.000000    13.941929754    20.622315916     2.429996667   0   0   0 # oc23
    294      1   1  0.000000    11.486931803    24.874497099     2.429996667   0   0   0 # oc23
    295      1   1  0.000000    11.486931803    17.647314733     4.772670000   0   0   0 # oc23