LAMMPS data file. msi2lmp v3.9.9 / 05 Nov 2018 / CGCMM for arg/quartz_alpha_ortho_unit

     18 atoms
     24 bonds
     48 angles
     72 dihedrals
     24 impropers

   2 atom types
   1 bond types
   2 angle types
   1 dihedral types
   1 improper types

     0.000000000     4.910000000 xlo xhi
     0.000000000     8.504400000 ylo yhi
     0.000000000     5.402000000 zlo zhi

Masses

   1  15.999400 # oc23
   2  28.086000 # sc4

Pair Coeffs # lj/class2/coul/long

   1   0.0400000000   3.6000000000 # oc23
   2   0.0800000000   4.2000000000 # sc4

Bond Coeffs # class2

   1     1.6800   285.0000     0.0000     0.0000 # oc23-sc4

Angle Coeffs # class2

   1   149.0000   100.0000     0.0000     0.0000 # sc4-oc23-sc4
   2   109.5000   100.0000     0.0000     0.0000 # oc23-sc4-oc23

Dihedral Coeffs # class2

   1     0.0000     0.0000     0.0000     0.0000     0.0000     0.0000# sc4-oc23-sc4-oc23

Improper Coeffs # class2

  1     0.0000     0.0000 

BondBond Coeffs

  1     0.0000     1.6800     1.6800 
  2     0.0000     1.6800     1.6800 

BondAngle Coeffs

  1     0.0000     0.0000     1.6800     1.6800 
  2     0.0000     0.0000     1.6800     1.6800 

AngleAngle Coeffs

  1     0.0000     0.0000     0.0000   109.5000   109.5000   109.5000 

AngleAngleTorsion Coeffs

  1     0.0000   149.0000   109.5000 

EndBondTorsion Coeffs

1     0.0000     0.0000     0.0000     0.0000     0.0000     0.0000     1.6800     1.6800 

MiddleBondTorsion Coeffs

  1     0.0000     0.0000     0.0000     1.6800 

BondBond13 Coeffs

  1     0.0000     1.6800     1.6800 

AngleTorsion Coeffs

  1     0.0000     0.0000     0.0000     0.0000     0.0000     0.0000   149.0000   109.5000 

Atoms # full

      1      1   1  0.000000     4.629561064     1.762907387     0.629330000   0   0   0 # oc23
      2      1   1  0.000000     2.174563113     6.015088570     0.629330000   0   0   0 # oc23
      3      1   1  0.000000     1.068492788     3.127863797     4.230663333   0   0   0 # oc23
      4      1   1  0.000000     3.523490739     7.380044980     4.230663333   0   0   0 # oc23
      5      1   1  0.000000     4.121937951     3.613591183     2.429996667   0   0   0 # oc23
      6      1   1  0.000000     1.666940000     7.865772366     2.429996667   0   0   0 # oc23
      7      1   1  0.000000     1.666940000     0.638590000     4.772670000   0   0   0 # oc23
      8      1   1  0.000000     4.121937951     4.890771183     4.772670000   0   0   0 # oc23
      9      1   1  0.000000     2.174563113     2.489273797     1.171336667   0   0   0 # oc23
     10      1   1  0.000000     4.629561064     6.741454980     1.171336667   0   0   0 # oc23
     11      1   1  0.000000     3.523490739     1.124317387     2.972003333   0   0   0 # oc23
     12      1   1  0.000000     1.068492788     5.376498570     2.972003333   0   0   0 # oc23
     13      1   2  0.000000     1.180315677     2.044366722     0.000000000   0   0   0 # sc4
     14      1   2  0.000000     3.635313628     6.296547905     0.000000000   0   0   0 # sc4
     15      1   2  0.000000     2.549364547     0.000000000     3.601333333   0   0   0 # sc4
     16      1   2  0.000000     0.094366596     4.252181183     3.601333333   0   0   0 # sc4
     17      1   2  0.000000     3.635313628     2.207814461     1.800666667   0   0   0 # sc4
     18      1   2  0.000000     1.180315677     6.459995644     1.800666667   0   0   0 # sc4

Bonds

     1   1      1     13
     2   1      1     17
     3   1      2     14
     4   1      2     18
     5   1      3     16
     6   1      3     13
     7   1      4     15
     8   1      4     14
     9   1      5     17
    10   1      5     16
    11   1      6     18
    12   1      6     15
    13   1      7     13
    14   1      7     15
    15   1      8     14
    16   1      8     16
    17   1      9     17
    18   1      9     13
    19   1     10     18
    20   1     10     14
    21   1     11     15
    22   1     11     17
    23   1     12     16
    24   1     12     18

Angles

     1   1     13      1     17
     2   1     14      2     18
     3   1     16      3     13
     4   1     15      4     14
     5   1     17      5     16
     6   1     18      6     15
     7   1     13      7     15
     8   1     14      8     16
     9   1     17      9     13
    10   1     18     10     14
    11   1     15     11     17
    12   1     16     12     18
    13   2      1     13      7
    14   2      1     13      9
    15   2      1     13      3
    16   2      7     13      9
    17   2      7     13      3
    18   2      9     13      3
    19   2      2     14      8
    20   2      2     14     10
    21   2      2     14      4
    22   2      8     14     10
    23   2      8     14      4
    24   2     10     14      4
    25   2      4     15     11
    26   2      4     15      7
    27   2      4     15      6
    28   2     11     15      7
    29   2     11     15      6
    30   2      7     15      6
    31   2      3     16     12
    32   2      3     16      8
    33   2      3     16      5
    34   2     12     16      8
    35   2     12     16      5
    36   2      8     16      5
    37   2      5     17      9
    38   2      5     17     11
    39   2      5     17      1
    40   2      9     17     11
    41   2      9     17      1
    42   2     11     17      1
    43   2      6     18     10
    44   2      6     18     12
    45   2      6     18      2
    46   2     10     18     12
    47   2     10     18      2
    48   2     12     18      2

Dihedrals

     1   1     17      1     13      7
     2   1     17      1     13      9
     3   1     17      1     13      3
     4   1     13      1     17      5
     5   1     13      1     17      9
     6   1     13      1     17     11
     7   1     18      2     14      8
     8   1     18      2     14     10
     9   1     18      2     14      4
    10   1     14      2     18      6
    11   1     14      2     18     10
    12   1     14      2     18     12
    13   1     13      3     16     12
    14   1     13      3     16      8
    15   1     13      3     16      5
    16   1     16      3     13      1
    17   1     16      3     13      7
    18   1     16      3     13      9
    19   1     14      4     15     11
    20   1     14      4     15      7
    21   1     14      4     15      6
    22   1     15      4     14      2
    23   1     15      4     14      8
    24   1     15      4     14     10
    25   1     16      5     17      9
    26   1     16      5     17     11
    27   1     16      5     17      1
    28   1     17      5     16      3
    29   1     17      5     16     12
    30   1     17      5     16      8
    31   1     15      6     18     10
    32   1     15      6     18     12
    33   1     15      6     18      2
    34   1     18      6     15      4
    35   1     18      6     15     11
    36   1     18      6     15      7
    37   1     15      7     13      1
    38   1     15      7     13      9
    39   1     15      7     13      3
    40   1     13      7     15      4
    41   1     13      7     15     11
    42   1     13      7     15      6
    43   1     16      8     14      2
    44   1     16      8     14     10
    45   1     16      8     14      4
    46   1     14      8     16      3
    47   1     14      8     16     12
    48   1     14      8     16      5
    49   1     13      9     17      5
    50   1     13      9     17     11
    51   1     13      9     17      1
    52   1     17      9     13      1
    53   1     17      9     13      7
    54   1     17      9     13      3
    55   1     14     10     18      6
    56   1     14     10     18     12
    57   1     14     10     18      2
    58   1     18     10     14      2
    59   1     18     10     14      8
    60   1     18     10     14      4
    61   1     17     11     15      4
    62   1     17     11     15      7
    63   1     17     11     15      6
    64   1     15     11     17      5
    65   1     15     11     17      9
    66   1     15     11     17      1
    67   1     18     12     16      3
    68   1     18     12     16      8
    69   1     18     12     16      5
    70   1     16     12     18      6
    71   1     16     12     18     10
    72   1     16     12     18      2

Impropers

     1   1      1     13      7      9 
     2   1      1     13      7      3 
     3   1      1     13      9      3 
     4   1      7     13      9      3 
     5   1      2     14      8     10 
     6   1      2     14      8      4 
     7   1      2     14     10      4 
     8   1      8     14     10      4 
     9   1      4     15     11      7 
    10   1      4     15     11      6 
    11   1      4     15      7      6 
    12   1     11     15      7      6 
    13   1      3     16     12      8 
    14   1      3     16     12      5 
    15   1      3     16      8      5 
    16   1     12     16      8      5 
    17   1      5     17      9     11 
    18   1      5     17      9      1 
    19   1      5     17     11      1 
    20   1      9     17     11      1 
    21   1      6     18     10     12 
    22   1      6     18     10      2 
    23   1      6     18     12      2 
    24   1     10     18     12      2 

